<?xml version="1.0"?> 
<VTKFile type="UnstructuredGrid"> 
   <UnstructuredGrid> 
      <Piece NumberOfPoints="6000"  NumberOfCells="1500">  
          <Points>  
             <DataArray type="Float64" NumberOfComponents="3" format="ascii">   
-500.0   0.0   0.0
-450.0   0.0   0.0
-500.0   30.0   0.0
-500.0   0.0   16.666666666666668
-450.0   0.0   0.0
-450.0   30.0   0.0
-500.0   30.0   0.0
-450.0   30.0   16.666666666666668
-500.0   0.0   16.666666666666668
-500.0   30.0   16.666666666666668
-450.0   30.0   16.666666666666668
-500.0   30.0   0.0
-500.0   0.0   16.666666666666668
-450.0   30.0   16.666666666666668
-450.0   0.0   16.666666666666668
-450.0   0.0   0.0
-500.0   0.0   16.666666666666668
-450.0   30.0   16.666666666666668
-450.0   0.0   0.0
-500.0   30.0   0.0
-500.0   0.0   16.666666666666668
-450.0   0.0   16.666666666666668
-500.0   30.0   16.666666666666668
-500.0   0.0   33.333333333333336
-450.0   0.0   16.666666666666668
-450.0   30.0   16.666666666666668
-500.0   30.0   16.666666666666668
-450.0   30.0   33.333333333333336
-500.0   0.0   33.333333333333336
-500.0   30.0   33.333333333333336
-450.0   30.0   33.333333333333336
-500.0   30.0   16.666666666666668
-500.0   0.0   33.333333333333336
-450.0   30.0   33.333333333333336
-450.0   0.0   33.333333333333336
-450.0   0.0   16.666666666666668
-500.0   0.0   33.333333333333336
-450.0   30.0   33.333333333333336
-450.0   0.0   16.666666666666668
-500.0   30.0   16.666666666666668
-500.0   0.0   33.333333333333336
-450.0   0.0   33.333333333333336
-500.0   30.0   33.333333333333336
-500.0   0.0   50.0
-450.0   0.0   33.333333333333336
-450.0   30.0   33.333333333333336
-500.0   30.0   33.333333333333336
-450.0   30.0   50.0
-500.0   0.0   50.0
-500.0   30.0   50.0
-450.0   30.0   50.0
-500.0   30.0   33.333333333333336
-500.0   0.0   50.0
-450.0   30.0   50.0
-450.0   0.0   50.0
-450.0   0.0   33.333333333333336
-500.0   0.0   50.0
-450.0   30.0   50.0
-450.0   0.0   33.333333333333336
-500.0   30.0   33.333333333333336
-500.0   30.0   0.0
-450.0   30.0   0.0
-500.0   60.0   0.0
-500.0   30.0   16.666666666666668
-450.0   30.0   0.0
-450.0   60.0   0.0
-500.0   60.0   0.0
-450.0   60.0   16.666666666666668
-500.0   30.0   16.666666666666668
-500.0   60.0   16.666666666666668
-450.0   60.0   16.666666666666668
-500.0   60.0   0.0
-500.0   30.0   16.666666666666668
-450.0   60.0   16.666666666666668
-450.0   30.0   16.666666666666668
-450.0   30.0   0.0
-500.0   30.0   16.666666666666668
-450.0   60.0   16.666666666666668
-450.0   30.0   0.0
-500.0   60.0   0.0
-500.0   30.0   16.666666666666668
-450.0   30.0   16.666666666666668
-500.0   60.0   16.666666666666668
-500.0   30.0   33.333333333333336
-450.0   30.0   16.666666666666668
-450.0   60.0   16.666666666666668
-500.0   60.0   16.666666666666668
-450.0   60.0   33.333333333333336
-500.0   30.0   33.333333333333336
-500.0   60.0   33.333333333333336
-450.0   60.0   33.333333333333336
-500.0   60.0   16.666666666666668
-500.0   30.0   33.333333333333336
-450.0   60.0   33.333333333333336
-450.0   30.0   33.333333333333336
-450.0   30.0   16.666666666666668
-500.0   30.0   33.333333333333336
-450.0   60.0   33.333333333333336
-450.0   30.0   16.666666666666668
-500.0   60.0   16.666666666666668
-500.0   30.0   33.333333333333336
-450.0   30.0   33.333333333333336
-500.0   60.0   33.333333333333336
-500.0   30.0   50.0
-450.0   30.0   33.333333333333336
-450.0   60.0   33.333333333333336
-500.0   60.0   33.333333333333336
-450.0   60.0   50.0
-500.0   30.0   50.0
-500.0   60.0   50.0
-450.0   60.0   50.0
-500.0   60.0   33.333333333333336
-500.0   30.0   50.0
-450.0   60.0   50.0
-450.0   30.0   50.0
-450.0   30.0   33.333333333333336
-500.0   30.0   50.0
-450.0   60.0   50.0
-450.0   30.0   33.333333333333336
-500.0   60.0   33.333333333333336
-500.0   60.0   0.0
-450.0   60.0   0.0
-500.0   90.0   0.0
-500.0   60.0   16.666666666666668
-450.0   60.0   0.0
-450.0   90.0   0.0
-500.0   90.0   0.0
-450.0   90.0   16.666666666666668
-500.0   60.0   16.666666666666668
-500.0   90.0   16.666666666666668
-450.0   90.0   16.666666666666668
-500.0   90.0   0.0
-500.0   60.0   16.666666666666668
-450.0   90.0   16.666666666666668
-450.0   60.0   16.666666666666668
-450.0   60.0   0.0
-500.0   60.0   16.666666666666668
-450.0   90.0   16.666666666666668
-450.0   60.0   0.0
-500.0   90.0   0.0
-500.0   60.0   16.666666666666668
-450.0   60.0   16.666666666666668
-500.0   90.0   16.666666666666668
-500.0   60.0   33.333333333333336
-450.0   60.0   16.666666666666668
-450.0   90.0   16.666666666666668
-500.0   90.0   16.666666666666668
-450.0   90.0   33.333333333333336
-500.0   60.0   33.333333333333336
-500.0   90.0   33.333333333333336
-450.0   90.0   33.333333333333336
-500.0   90.0   16.666666666666668
-500.0   60.0   33.333333333333336
-450.0   90.0   33.333333333333336
-450.0   60.0   33.333333333333336
-450.0   60.0   16.666666666666668
-500.0   60.0   33.333333333333336
-450.0   90.0   33.333333333333336
-450.0   60.0   16.666666666666668
-500.0   90.0   16.666666666666668
-500.0   60.0   33.333333333333336
-450.0   60.0   33.333333333333336
-500.0   90.0   33.333333333333336
-500.0   60.0   50.0
-450.0   60.0   33.333333333333336
-450.0   90.0   33.333333333333336
-500.0   90.0   33.333333333333336
-450.0   90.0   50.0
-500.0   60.0   50.0
-500.0   90.0   50.0
-450.0   90.0   50.0
-500.0   90.0   33.333333333333336
-500.0   60.0   50.0
-450.0   90.0   50.0
-450.0   60.0   50.0
-450.0   60.0   33.333333333333336
-500.0   60.0   50.0
-450.0   90.0   50.0
-450.0   60.0   33.333333333333336
-500.0   90.0   33.333333333333336
-500.0   90.0   0.0
-450.0   90.0   0.0
-500.0   120.0   0.0
-500.0   90.0   16.666666666666668
-450.0   90.0   0.0
-450.0   120.0   0.0
-500.0   120.0   0.0
-450.0   120.0   16.666666666666668
-500.0   90.0   16.666666666666668
-500.0   120.0   16.666666666666668
-450.0   120.0   16.666666666666668
-500.0   120.0   0.0
-500.0   90.0   16.666666666666668
-450.0   120.0   16.666666666666668
-450.0   90.0   16.666666666666668
-450.0   90.0   0.0
-500.0   90.0   16.666666666666668
-450.0   120.0   16.666666666666668
-450.0   90.0   0.0
-500.0   120.0   0.0
-500.0   90.0   16.666666666666668
-450.0   90.0   16.666666666666668
-500.0   120.0   16.666666666666668
-500.0   90.0   33.333333333333336
-450.0   90.0   16.666666666666668
-450.0   120.0   16.666666666666668
-500.0   120.0   16.666666666666668
-450.0   120.0   33.333333333333336
-500.0   90.0   33.333333333333336
-500.0   120.0   33.333333333333336
-450.0   120.0   33.333333333333336
-500.0   120.0   16.666666666666668
-500.0   90.0   33.333333333333336
-450.0   120.0   33.333333333333336
-450.0   90.0   33.333333333333336
-450.0   90.0   16.666666666666668
-500.0   90.0   33.333333333333336
-450.0   120.0   33.333333333333336
-450.0   90.0   16.666666666666668
-500.0   120.0   16.666666666666668
-500.0   90.0   33.333333333333336
-450.0   90.0   33.333333333333336
-500.0   120.0   33.333333333333336
-500.0   90.0   50.0
-450.0   90.0   33.333333333333336
-450.0   120.0   33.333333333333336
-500.0   120.0   33.333333333333336
-450.0   120.0   50.0
-500.0   90.0   50.0
-500.0   120.0   50.0
-450.0   120.0   50.0
-500.0   120.0   33.333333333333336
-500.0   90.0   50.0
-450.0   120.0   50.0
-450.0   90.0   50.0
-450.0   90.0   33.333333333333336
-500.0   90.0   50.0
-450.0   120.0   50.0
-450.0   90.0   33.333333333333336
-500.0   120.0   33.333333333333336
-500.0   120.0   0.0
-450.0   120.0   0.0
-500.0   150.0   0.0
-500.0   120.0   16.666666666666668
-450.0   120.0   0.0
-450.0   150.0   0.0
-500.0   150.0   0.0
-450.0   150.0   16.666666666666668
-500.0   120.0   16.666666666666668
-500.0   150.0   16.666666666666668
-450.0   150.0   16.666666666666668
-500.0   150.0   0.0
-500.0   120.0   16.666666666666668
-450.0   150.0   16.666666666666668
-450.0   120.0   16.666666666666668
-450.0   120.0   0.0
-500.0   120.0   16.666666666666668
-450.0   150.0   16.666666666666668
-450.0   120.0   0.0
-500.0   150.0   0.0
-500.0   120.0   16.666666666666668
-450.0   120.0   16.666666666666668
-500.0   150.0   16.666666666666668
-500.0   120.0   33.333333333333336
-450.0   120.0   16.666666666666668
-450.0   150.0   16.666666666666668
-500.0   150.0   16.666666666666668
-450.0   150.0   33.333333333333336
-500.0   120.0   33.333333333333336
-500.0   150.0   33.333333333333336
-450.0   150.0   33.333333333333336
-500.0   150.0   16.666666666666668
-500.0   120.0   33.333333333333336
-450.0   150.0   33.333333333333336
-450.0   120.0   33.333333333333336
-450.0   120.0   16.666666666666668
-500.0   120.0   33.333333333333336
-450.0   150.0   33.333333333333336
-450.0   120.0   16.666666666666668
-500.0   150.0   16.666666666666668
-500.0   120.0   33.333333333333336
-450.0   120.0   33.333333333333336
-500.0   150.0   33.333333333333336
-500.0   120.0   50.0
-450.0   120.0   33.333333333333336
-450.0   150.0   33.333333333333336
-500.0   150.0   33.333333333333336
-450.0   150.0   50.0
-500.0   120.0   50.0
-500.0   150.0   50.0
-450.0   150.0   50.0
-500.0   150.0   33.333333333333336
-500.0   120.0   50.0
-450.0   150.0   50.0
-450.0   120.0   50.0
-450.0   120.0   33.333333333333336
-500.0   120.0   50.0
-450.0   150.0   50.0
-450.0   120.0   33.333333333333336
-500.0   150.0   33.333333333333336
-450.0   0.0   0.0
-400.0   0.0   0.0
-450.0   30.0   0.0
-450.0   0.0   16.666666666666668
-400.0   0.0   0.0
-400.0   30.0   0.0
-450.0   30.0   0.0
-400.0   30.0   16.666666666666668
-450.0   0.0   16.666666666666668
-450.0   30.0   16.666666666666668
-400.0   30.0   16.666666666666668
-450.0   30.0   0.0
-450.0   0.0   16.666666666666668
-400.0   30.0   16.666666666666668
-400.0   0.0   16.666666666666668
-400.0   0.0   0.0
-450.0   0.0   16.666666666666668
-400.0   30.0   16.666666666666668
-400.0   0.0   0.0
-450.0   30.0   0.0
-450.0   0.0   16.666666666666668
-400.0   0.0   16.666666666666668
-450.0   30.0   16.666666666666668
[...]
          <PointData>  
             <DataArray type="Float64" NumberOfComponents="3" Name="Strains" format="ascii">   
-3.8045948465422947e-05   0.0   -2.5126140459848074e-05
-3.8045948465422947e-05   0.0   -2.5126140459848074e-05
-3.8045948465422947e-05   0.0   -2.5126140459848074e-05
-3.8045948465422947e-05   0.0   -2.5126140459848074e-05
-2.4193891593192983e-05   4.193993296948733e-06   4.770169720377167e-07
-2.4193891593192983e-05   4.193993296948733e-06   4.770169720377167e-07
-2.4193891593192983e-05   4.193993296948733e-06   4.770169720377167e-07
-2.4193891593192983e-05   4.193993296948733e-06   4.770169720377167e-07
-2.3704772803599948e-05   0.0   -2.3734733555816818e-05
-2.3704772803599948e-05   0.0   -2.3734733555816818e-05
-2.3704772803599948e-05   0.0   -2.3734733555816818e-05
-2.3704772803599948e-05   0.0   -2.3734733555816818e-05
-3.980372581660409e-05   5.042914426638885e-06   7.110614320686068e-08
-3.980372581660409e-05   5.042914426638885e-06   7.110614320686068e-08
-3.980372581660409e-05   5.042914426638885e-06   7.110614320686068e-08
-3.980372581660409e-05   5.042914426638885e-06   7.110614320686068e-08
-3.0875360634511395e-05   1.1595057533593788e-06   -1.2479457289646581e-05
-3.0875360634511395e-05   1.1595057533593788e-06   -1.2479457289646581e-05
-3.0875360634511395e-05   1.1595057533593788e-06   -1.2479457289646581e-05
-3.0875360634511395e-05   1.1595057533593788e-06   -1.2479457289646581e-05
-3.980372581660416e-05   0.0   -2.6760482211800155e-05
-3.980372581660416e-05   0.0   -2.6760482211800155e-05
-3.980372581660416e-05   0.0   -2.6760482211800155e-05
-3.980372581660416e-05   0.0   -2.6760482211800155e-05
-2.3704772803599948e-05   5.042914426638892e-06   3.0968547991901902e-06
-2.3704772803599948e-05   5.042914426638892e-06   3.0968547991901902e-06
-2.3704772803599948e-05   5.042914426638892e-06   3.0968547991901902e-06
-2.3704772803599948e-05   5.042914426638892e-06   3.0968547991901902e-06
-2.376011706158895e-05   0.0   -2.4312579089180102e-05
-2.376011706158895e-05   0.0   -2.4312579089180102e-05
-2.376011706158895e-05   0.0   -2.4312579089180102e-05
-2.376011706158895e-05   0.0   -2.4312579089180102e-05
-4.1032912810295676e-05   5.405421547778787e-06   1.2321608966639437e-06
-4.1032912810295676e-05   5.405421547778787e-06   1.2321608966639437e-06
-4.1032912810295676e-05   5.405421547778787e-06   1.2321608966639437e-06
-4.1032912810295676e-05   5.405421547778787e-06   1.2321608966639437e-06
-3.17819214390965e-05   2.039919268850042e-06   -1.2166856687977427e-05
-3.17819214390965e-05   2.039919268850042e-06   -1.2166856687977427e-05
-3.17819214390965e-05   2.039919268850042e-06   -1.2166856687977427e-05
-3.17819214390965e-05   2.039919268850042e-06   -1.2166856687977427e-05
-4.1032912810295744e-05   0.0   -2.755583201784738e-05
-4.1032912810295744e-05   0.0   -2.755583201784738e-05
-4.1032912810295744e-05   0.0   -2.755583201784738e-05
-4.1032912810295744e-05   0.0   -2.755583201784738e-05
-2.376011706158891e-05   5.405421547778787e-06   4.4754138253312145e-06
-2.376011706158891e-05   5.405421547778787e-06   4.4754138253312145e-06
-2.376011706158891e-05   5.405421547778787e-06   4.4754138253312145e-06
-2.376011706158891e-05   5.405421547778787e-06   4.4754138253312145e-06
-2.3734656170006402e-05   0.0   -2.4462876940901318e-05
-2.3734656170006402e-05   0.0   -2.4462876940901318e-05
-2.3734656170006402e-05   0.0   -2.4462876940901318e-05
-2.3734656170006402e-05   0.0   -2.4462876940901318e-05
-4.369234006006548e-05   6.166310537511397e-06   5.10014322002376e-06
-4.369234006006548e-05   6.166310537511397e-06   5.10014322002376e-06
-4.369234006006548e-05   6.166310537511397e-06   5.10014322002376e-06
-4.369234006006548e-05   6.166310537511397e-06   5.10014322002376e-06
-3.238378449015102e-05   2.5774625641217166e-06   -1.159414061246653e-05
-3.238378449015102e-05   2.5774625641217166e-06   -1.159414061246653e-05
-3.238378449015102e-05   2.5774625641217166e-06   -1.159414061246653e-05
-3.238378449015102e-05   2.5774625641217166e-06   -1.159414061246653e-05
-2.4193891593193027e-05   0.0   -2.260974448167883e-05
-2.4193891593193027e-05   0.0   -2.260974448167883e-05
-2.4193891593193027e-05   0.0   -2.260974448167883e-05
-2.4193891593193027e-05   0.0   -2.260974448167883e-05
-1.1031336526615798e-05   1.534184743844269e-06   2.4835814225642654e-07
-1.1031336526615798e-05   1.534184743844269e-06   2.4835814225642654e-07
-1.1031336526615798e-05   1.534184743844269e-06   2.4835814225642654e-07
-1.1031336526615798e-05   1.534184743844269e-06   2.4835814225642654e-07
-1.0598567858863943e-05   0.0   -2.242010629487762e-05
-1.0598567858863943e-05   0.0   -2.242010629487762e-05
-1.0598567858863943e-05   0.0   -2.242010629487762e-05
-1.0598567858863943e-05   0.0   -2.242010629487762e-05
-2.3704772803599948e-05   2.1910454348986004e-06   -1.8910586479235056e-06
-2.3704772803599948e-05   2.1910454348986004e-06   -1.8910586479235056e-06
-2.3704772803599948e-05   2.1910454348986004e-06   -1.8910586479235056e-06
-2.3704772803599948e-05   2.1910454348986004e-06   -1.8910586479235056e-06
-1.7396229726028464e-05   1.5803182233430912e-07   -1.1185488943003995e-05
-1.7396229726028464e-05   1.5803182233430912e-07   -1.1185488943003995e-05
-1.7396229726028464e-05   1.5803182233430912e-07   -1.1185488943003995e-05
-1.7396229726028464e-05   1.5803182233430912e-07   -1.1185488943003995e-05
-2.3704772803599927e-05   0.0   -2.3734733555816795e-05
-2.3704772803599927e-05   0.0   -2.3734733555816795e-05
-2.3704772803599927e-05   0.0   -2.3734733555816795e-05
-2.3704772803599927e-05   0.0   -2.3734733555816795e-05
-1.0598567858863943e-05   2.1910454348985937e-06   -5.764313869843474e-07
-1.0598567858863943e-05   2.1910454348985937e-06   -5.764313869843474e-07
-1.0598567858863943e-05   2.1910454348985937e-06   -5.764313869843474e-07
-1.0598567858863943e-05   2.1910454348985937e-06   -5.764313869843474e-07
-1.0350807716189295e-05   0.0   -2.2699159367696822e-05
-1.0350807716189295e-05   0.0   -2.2699159367696822e-05
-1.0350807716189295e-05   0.0   -2.2699159367696822e-05
-1.0350807716189295e-05   0.0   -2.2699159367696822e-05
-2.376011706158895e-05   2.6890328691387335e-06   -1.9637301801807112e-06
-2.376011706158895e-05   2.6890328691387335e-06   -1.9637301801807112e-06
-2.376011706158895e-05   2.6890328691387335e-06   -1.9637301801807112e-06
-2.376011706158895e-05   2.6890328691387335e-06   -1.9637301801807112e-06
-1.7027790259894597e-05   8.629784900999632e-07   -1.2088642222247938e-05
-1.7027790259894597e-05   8.629784900999632e-07   -1.2088642222247938e-05
-1.7027790259894597e-05   8.629784900999632e-07   -1.2088642222247938e-05
-1.7027790259894597e-05   8.629784900999632e-07   -1.2088642222247938e-05
-2.376011706158895e-05   0.0   -2.4312579089180102e-05
-2.376011706158895e-05   0.0   -2.4312579089180102e-05
-2.376011706158895e-05   0.0   -2.4312579089180102e-05
-2.376011706158895e-05   0.0   -2.4312579089180102e-05
-1.0350807716189313e-05   2.6890328691387335e-06   -3.503104586974718e-07
-1.0350807716189313e-05   2.6890328691387335e-06   -3.503104586974718e-07
-1.0350807716189313e-05   2.6890328691387335e-06   -3.503104586974718e-07
-1.0350807716189313e-05   2.6890328691387335e-06   -3.503104586974718e-07
-1.0123301742571202e-05   0.0   -2.2583837067844527e-05
-1.0123301742571202e-05   0.0   -2.2583837067844527e-05
-1.0123301742571202e-05   0.0   -2.2583837067844527e-05
-1.0123301742571202e-05   0.0   -2.2583837067844527e-05
-2.3734656170006337e-05   3.1317331217612838e-06   -1.7772862285093187e-06
-2.3734656170006337e-05   3.1317331217612838e-06   -1.7772862285093187e-06
-2.3734656170006337e-05   3.1317331217612838e-06   -1.7772862285093187e-06
-2.3734656170006337e-05   3.1317331217612838e-06   -1.7772862285093187e-06
-1.694170940208007e-05   1.440618351112965e-06   -1.2084195312664188e-05
-1.694170940208007e-05   1.440618351112965e-06   -1.2084195312664188e-05
-1.694170940208007e-05   1.440618351112965e-06   -1.2084195312664188e-05
-1.694170940208007e-05   1.440618351112965e-06   -1.2084195312664188e-05
-1.1031336526615817e-05   0.0   -2.168923363537227e-05
-1.1031336526615817e-05   0.0   -2.168923363537227e-05
-1.1031336526615817e-05   0.0   -2.168923363537227e-05
-1.1031336526615817e-05   0.0   -2.168923363537227e-05
1.3949707477926618e-06   -1.995675393802541e-07   -1.0984620349862668e-06
1.3949707477926618e-06   -1.995675393802541e-07   -1.0984620349862668e-06
1.3949707477926618e-06   -1.995675393802541e-07   -1.0984620349862668e-06
1.3949707477926618e-06   -1.995675393802541e-07   -1.0984620349862668e-06
1.67654059634872e-06   0.0   -2.2186247333194504e-05
1.67654059634872e-06   0.0   -2.2186247333194504e-05
1.67654059634872e-06   0.0   -2.2186247333194504e-05
1.67654059634872e-06   0.0   -2.2186247333194504e-05
-1.0598567858863943e-05   3.897649361384644e-07   -1.9615922028565132e-06
-1.0598567858863943e-05   3.897649361384644e-07   -1.9615922028565132e-06
-1.0598567858863943e-05   3.897649361384644e-07   -1.9615922028565132e-06
-1.0598567858863943e-05   3.897649361384644e-07   -1.9615922028565132e-06
-4.677397965133538e-06   -4.1417808151859316e-07   -1.1347842881812943e-05
-4.677397965133538e-06   -4.1417808151859316e-07   -1.1347842881812943e-05
-4.677397965133538e-06   -4.1417808151859316e-07   -1.1347842881812943e-05
-4.677397965133538e-06   -4.1417808151859316e-07   -1.1347842881812943e-05
-1.0598567858863961e-05   0.0   -2.242010629487766e-05
-1.0598567858863961e-05   0.0   -2.242010629487766e-05
-1.0598567858863961e-05   0.0   -2.242010629487766e-05
-1.0598567858863961e-05   0.0   -2.242010629487766e-05
1.6765405963487229e-06   3.897649361384644e-07   -1.7277332411734331e-06
1.6765405963487229e-06   3.897649361384644e-07   -1.7277332411734331e-06
1.6765405963487229e-06   3.897649361384644e-07   -1.7277332411734331e-06
1.6765405963487229e-06   3.897649361384644e-07   -1.7277332411734331e-06
1.9002943516377266e-06   0.0   -2.2153622868982438e-05
1.9002943516377266e-06   0.0   -2.2153622868982438e-05
1.9002943516377266e-06   0.0   -2.2153622868982438e-05
1.9002943516377266e-06   0.0   -2.2153622868982438e-05
-1.0350807716189278e-05   9.092274978573047e-07   -2.2806559213184553e-06
-1.0350807716189278e-05   9.092274978573047e-07   -2.2806559213184553e-06
-1.0350807716189278e-05   9.092274978573047e-07   -2.2806559213184553e-06
-1.0350807716189278e-05   9.092274978573047e-07   -2.2806559213184553e-06
-4.349136753613108e-06   2.220695215793187e-07   -1.187114607317863e-05
-4.349136753613108e-06   2.220695215793187e-07   -1.187114607317863e-05
-4.349136753613108e-06   2.220695215793187e-07   -1.187114607317863e-05
-4.349136753613108e-06   2.220695215793187e-07   -1.187114607317863e-05
-1.0350807716189313e-05   0.0   -2.2699159367696862e-05
-1.0350807716189313e-05   0.0   -2.2699159367696862e-05
-1.0350807716189313e-05   0.0   -2.2699159367696862e-05
-1.0350807716189313e-05   0.0   -2.2699159367696862e-05
1.90029435163773e-06   9.092274978573115e-07   -1.7351194226040739e-06
1.90029435163773e-06   9.092274978573115e-07   -1.7351194226040739e-06
1.90029435163773e-06   9.092274978573115e-07   -1.7351194226040739e-06
1.90029435163773e-06   9.092274978573115e-07   -1.7351194226040739e-06
2.197536148056789e-06   0.0   -2.1677709060050095e-05
2.197536148056789e-06   0.0   -2.1677709060050095e-05
2.197536148056789e-06   0.0   -2.1677709060050095e-05
2.197536148056789e-06   0.0   -2.1677709060050095e-05
-1.0123301742571194e-05   1.5102133463240234e-06   -2.049107250131204e-06
-1.0123301742571194e-05   1.5102133463240234e-06   -2.049107250131204e-06
-1.0123301742571194e-05   1.5102133463240234e-06   -2.049107250131204e-06
-1.0123301742571194e-05   1.5102133463240234e-06   -2.049107250131204e-06
-4.076635784066253e-06   8.512085897056065e-07   -1.1731480993668382e-05
-4.076635784066253e-06   8.512085897056065e-07   -1.1731480993668382e-05
-4.076635784066253e-06   8.512085897056065e-07   -1.1731480993668382e-05
-4.076635784066253e-06   8.512085897056065e-07   -1.1731480993668382e-05
1.3949707477926643e-06   0.0   -2.180897415900042e-05
1.3949707477926643e-06   0.0   -2.180897415900042e-05
1.3949707477926643e-06   0.0   -2.180897415900042e-05
1.3949707477926643e-06   0.0   -2.180897415900042e-05
1.4893329481922729e-05   -1.7468960589477511e-06   -3.598472374855359e-07
1.4893329481922729e-05   -1.7468960589477511e-06   -3.598472374855359e-07
1.4893329481922729e-05   -1.7468960589477511e-06   -3.598472374855359e-07
1.4893329481922729e-05   -1.7468960589477511e-06   -3.598472374855359e-07
1.4934040206124303e-05   0.0   -2.2974458247250124e-05
1.4934040206124303e-05   0.0   -2.2974458247250124e-05
1.4934040206124303e-05   0.0   -2.2974458247250124e-05
1.4934040206124303e-05   0.0   -2.2974458247250124e-05
1.6765405963487229e-06   -1.3136848567592405e-06   -9.041465023528543e-08
1.6765405963487229e-06   -1.3136848567592405e-06   -9.041465023528543e-08
1.6765405963487229e-06   -1.3136848567592405e-06   -9.041465023528543e-08
1.6765405963487229e-06   -1.3136848567592405e-06   -9.041465023528543e-08
8.164505476958484e-06   -9.712367402080863e-07   -1.1109158321182231e-05
8.164505476958484e-06   -9.712367402080863e-07   -1.1109158321182231e-05
8.164505476958484e-06   -9.712367402080863e-07   -1.1109158321182231e-05
8.164505476958484e-06   -9.712367402080863e-07   -1.1109158321182231e-05
1.6765405963487256e-06   0.0   -2.218624733319458e-05
1.6765405963487256e-06   0.0   -2.218624733319458e-05
1.6765405963487256e-06   0.0   -2.218624733319458e-05
1.6765405963487256e-06   0.0   -2.218624733319458e-05
1.4934040206124278e-05   -1.3136848567592405e-06   -8.786255642908257e-07
1.4934040206124278e-05   -1.3136848567592405e-06   -8.786255642908257e-07
1.4934040206124278e-05   -1.3136848567592405e-06   -8.786255642908257e-07
1.4934040206124278e-05   -1.3136848567592405e-06   -8.786255642908257e-07
1.4882341193302417e-05   0.0   -2.264649358835077e-05
1.4882341193302417e-05   0.0   -2.264649358835077e-05
1.4882341193302417e-05   0.0   -2.264649358835077e-05
1.4882341193302417e-05   0.0   -2.264649358835077e-05
1.90029435163773e-06   -8.21451198947153e-07   -5.168781328746665e-07
1.90029435163773e-06   -8.21451198947153e-07   -5.168781328746665e-07
1.90029435163773e-06   -8.21451198947153e-07   -5.168781328746665e-07
1.90029435163773e-06   -8.21451198947153e-07   -5.168781328746665e-07
8.279440894825572e-06   -3.8353854596349e-07   -1.1411536629977925e-05
8.279440894825572e-06   -3.8353854596349e-07   -1.1411536629977925e-05
8.279440894825572e-06   -3.8353854596349e-07   -1.1411536629977925e-05
8.279440894825572e-06   -3.8353854596349e-07   -1.1411536629977925e-05
1.90029435163773e-06   0.0   -2.2153622868982476e-05
1.90029435163773e-06   0.0   -2.2153622868982476e-05
1.90029435163773e-06   0.0   -2.2153622868982476e-05
1.90029435163773e-06   0.0   -2.2153622868982476e-05
1.4882341193302392e-05   -8.21451198947153e-07   -1.0097488522429583e-06
1.4882341193302392e-05   -8.21451198947153e-07   -1.0097488522429583e-06
1.4882341193302392e-05   -8.21451198947153e-07   -1.0097488522429583e-06
1.4882341193302392e-05   -8.21451198947153e-07   -1.0097488522429583e-06
1.5182348856750553e-05   0.0   -2.1774156812796687e-05
1.5182348856750553e-05   0.0   -2.1774156812796687e-05
1.5182348856750553e-05   0.0   -2.1774156812796687e-05
1.5182348856750553e-05   0.0   -2.1774156812796687e-05
2.1975361480567927e-06   -1.607462545775946e-07   -3.6354545560536706e-08
2.1975361480567927e-06   -1.607462545775946e-07   -3.6354545560536706e-08
2.1975361480567927e-06   -1.607462545775946e-07   -3.6354545560536706e-08
2.1975361480567927e-06   -1.607462545775946e-07   -3.6354545560536706e-08
8.54132160419414e-06   3.1622171348815687e-07   -1.089551108662889e-05
8.54132160419414e-06   3.1622171348815687e-07   -1.089551108662889e-05
8.54132160419414e-06   3.1622171348815687e-07   -1.089551108662889e-05
8.54132160419414e-06   3.1622171348815687e-07   -1.089551108662889e-05
1.489332948192278e-05   0.0   -2.2857111794369075e-05
1.489332948192278e-05   0.0   -2.2857111794369075e-05
1.489332948192278e-05   0.0   -2.2857111794369075e-05
1.489332948192278e-05   0.0   -2.2857111794369075e-05
3.369904635580968e-05   -4.437945085597575e-06   5.822982610750653e-06
3.369904635580968e-05   -4.437945085597575e-06   5.822982610750653e-06
3.369904635580968e-05   -4.437945085597575e-06   5.822982610750653e-06
3.369904635580968e-05   -4.437945085597575e-06   5.822982610750653e-06
3.166732381246716e-05   0.0   -2.523554041305508e-05
3.166732381246716e-05   0.0   -2.523554041305508e-05
3.166732381246716e-05   0.0   -2.523554041305508e-05
3.166732381246716e-05   0.0   -2.523554041305508e-05
1.4934040206124278e-05   -3.768470276341586e-06   4.914347763321291e-06
1.4934040206124278e-05   -3.768470276341586e-06   4.914347763321291e-06
1.4934040206124278e-05   -3.768470276341586e-06   4.914347763321291e-06
1.4934040206124278e-05   -3.768470276341586e-06   4.914347763321291e-06
2.328032664719497e-05   -1.982023848905004e-06   -1.0067997494925086e-05
2.328032664719497e-05   -1.982023848905004e-06   -1.0067997494925086e-05
2.328032664719497e-05   -1.982023848905004e-06   -1.0067997494925086e-05
2.328032664719497e-05   -1.982023848905004e-06   -1.0067997494925086e-05
1.4934040206124291e-05   0.0   -2.2974458247250103e-05
1.4934040206124291e-05   0.0   -2.2974458247250103e-05
1.4934040206124291e-05   0.0   -2.2974458247250103e-05
1.4934040206124291e-05   0.0   -2.2974458247250103e-05
3.166732381246716e-05   -3.768470276341593e-06   2.6532655975163412e-06
3.166732381246716e-05   -3.768470276341593e-06   2.6532655975163412e-06
3.166732381246716e-05   -3.768470276341593e-06   2.6532655975163412e-06
3.166732381246716e-05   -3.768470276341593e-06   2.6532655975163412e-06
3.0735953622551025e-05   0.0   -2.4711014126059485e-05
3.0735953622551025e-05   0.0   -2.4711014126059485e-05
3.0735953622551025e-05   0.0   -2.4711014126059485e-05
3.0735953622551025e-05   0.0   -2.4711014126059485e-05
1.4882341193302392e-05   -3.4408675628478565e-06   3.7761937937302383e-06
1.4882341193302392e-05   -3.4408675628478565e-06   3.7761937937302383e-06
1.4882341193302392e-05   -3.4408675628478565e-06   3.7761937937302383e-06
1.4882341193302392e-05   -3.4408675628478565e-06   3.7761937937302383e-06
2.283499691433765e-05   -1.4471298990078014e-06   -1.0674475006299182e-05
2.283499691433765e-05   -1.4471298990078014e-06   -1.0674475006299182e-05
2.283499691433765e-05   -1.4471298990078014e-06   -1.0674475006299182e-05
2.283499691433765e-05   -1.4471298990078014e-06   -1.0674475006299182e-05
1.4882341193302417e-05   0.0   -2.264649358835077e-05
1.4882341193302417e-05   0.0   -2.264649358835077e-05
1.4882341193302417e-05   0.0   -2.264649358835077e-05
1.4882341193302417e-05   0.0   -2.264649358835077e-05
3.073595362255098e-05   -3.4408675628478565e-06   1.7116732560215278e-06
3.073595362255098e-05   -3.4408675628478565e-06   1.7116732560215278e-06
3.073595362255098e-05   -3.4408675628478565e-06   1.7116732560215278e-06
3.073595362255098e-05   -3.4408675628478565e-06   1.7116732560215278e-06
2.9340835418682295e-05   0.0   -2.337345219718792e-05
2.9340835418682295e-05   0.0   -2.337345219718792e-05
2.9340835418682295e-05   0.0   -2.337345219718792e-05
2.9340835418682295e-05   0.0   -2.337345219718792e-05
1.5182348856750512e-05   -2.6654923073187134e-06   1.8233207904228941e-06
1.5182348856750512e-05   -2.6654923073187134e-06   1.8233207904228941e-06
1.5182348856750512e-05   -2.6654923073187134e-06   1.8233207904228941e-06
1.5182348856750512e-05   -2.6654923073187134e-06   1.8233207904228941e-06
2.211158830599232e-05   -6.057988406976233e-07   -1.0961227704952752e-05
2.211158830599232e-05   -6.057988406976233e-07   -1.0961227704952752e-05
2.211158830599232e-05   -6.057988406976233e-07   -1.0961227704952752e-05
2.211158830599232e-05   -6.057988406976233e-07   -1.0961227704952752e-05
-3.289439692176022e-05   4.193993296948733e-06   -2.168706439975377e-05
-3.289439692176022e-05   4.193993296948733e-06   -2.168706439975377e-05