<?xml version="1.0"?> 
<VTKFile type="UnstructuredGrid"> 
   <UnstructuredGrid> 
      <Piece NumberOfPoints="6000"  NumberOfCells="1500">  
          <Points>  
             <DataArray type="Float64" NumberOfComponents="3" format="ascii">   
-500.0   0.0   0.0
-450.0   0.0   0.0
-500.0   30.0   0.0
-500.0   0.0   16.666666666666668
-450.0   0.0   0.0
-450.0   30.0   0.0
-500.0   30.0   0.0
-450.0   30.0   16.666666666666668
-500.0   0.0   16.666666666666668
-500.0   30.0   16.666666666666668
-450.0   30.0   16.666666666666668
-500.0   30.0   0.0
-500.0   0.0   16.666666666666668
-450.0   30.0   16.666666666666668
-450.0   0.0   16.666666666666668
-450.0   0.0   0.0
-500.0   0.0   16.666666666666668
-450.0   30.0   16.666666666666668
-450.0   0.0   0.0
-500.0   30.0   0.0
-500.0   0.0   16.666666666666668
-450.0   0.0   16.666666666666668
-500.0   30.0   16.666666666666668
-500.0   0.0   33.333333333333336
-450.0   0.0   16.666666666666668
-450.0   30.0   16.666666666666668
-500.0   30.0   16.666666666666668
-450.0   30.0   33.333333333333336
-500.0   0.0   33.333333333333336
-500.0   30.0   33.333333333333336
-450.0   30.0   33.333333333333336
-500.0   30.0   16.666666666666668
-500.0   0.0   33.333333333333336
-450.0   30.0   33.333333333333336
-450.0   0.0   33.333333333333336
-450.0   0.0   16.666666666666668
-500.0   0.0   33.333333333333336
-450.0   30.0   33.333333333333336
-450.0   0.0   16.666666666666668
-500.0   30.0   16.666666666666668
-500.0   0.0   33.333333333333336
-450.0   0.0   33.333333333333336
-500.0   30.0   33.333333333333336
-500.0   0.0   50.0
-450.0   0.0   33.333333333333336
-450.0   30.0   33.333333333333336
-500.0   30.0   33.333333333333336
-450.0   30.0   50.0
-500.0   0.0   50.0
-500.0   30.0   50.0
-450.0   30.0   50.0
-500.0   30.0   33.333333333333336
-500.0   0.0   50.0
-450.0   30.0   50.0
-450.0   0.0   50.0
-450.0   0.0   33.333333333333336
-500.0   0.0   50.0
-450.0   30.0   50.0
-450.0   0.0   33.333333333333336
-500.0   30.0   33.333333333333336
-500.0   30.0   0.0
-450.0   30.0   0.0
-500.0   60.0   0.0
-500.0   30.0   16.666666666666668
-450.0   30.0   0.0
-450.0   60.0   0.0
-500.0   60.0   0.0
-450.0   60.0   16.666666666666668
-500.0   30.0   16.666666666666668
-500.0   60.0   16.666666666666668
-450.0   60.0   16.666666666666668
-500.0   60.0   0.0
-500.0   30.0   16.666666666666668
-450.0   60.0   16.666666666666668
-450.0   30.0   16.666666666666668
-450.0   30.0   0.0
-500.0   30.0   16.666666666666668
-450.0   60.0   16.666666666666668
-450.0   30.0   0.0
-500.0   60.0   0.0
-500.0   30.0   16.666666666666668
-450.0   30.0   16.666666666666668
-500.0   60.0   16.666666666666668
-500.0   30.0   33.333333333333336
-450.0   30.0   16.666666666666668
-450.0   60.0   16.666666666666668
-500.0   60.0   16.666666666666668
-450.0   60.0   33.333333333333336
-500.0   30.0   33.333333333333336
-500.0   60.0   33.333333333333336
-450.0   60.0   33.333333333333336
-500.0   60.0   16.666666666666668
-500.0   30.0   33.333333333333336
-450.0   60.0   33.333333333333336
-450.0   30.0   33.333333333333336
-450.0   30.0   16.666666666666668
-500.0   30.0   33.333333333333336
-450.0   60.0   33.333333333333336
-450.0   30.0   16.666666666666668
-500.0   60.0   16.666666666666668
-500.0   30.0   33.333333333333336
-450.0   30.0   33.333333333333336
-500.0   60.0   33.333333333333336
-500.0   30.0   50.0
-450.0   30.0   33.333333333333336
-450.0   60.0   33.333333333333336
-500.0   60.0   33.333333333333336
-450.0   60.0   50.0
-500.0   30.0   50.0
-500.0   60.0   50.0
-450.0   60.0   50.0
-500.0   60.0   33.333333333333336
-500.0   30.0   50.0
-450.0   60.0   50.0
-450.0   30.0   50.0
-450.0   30.0   33.333333333333336
-500.0   30.0   50.0
-450.0   60.0   50.0
-450.0   30.0   33.333333333333336
-500.0   60.0   33.333333333333336
-500.0   60.0   0.0
-450.0   60.0   0.0
-500.0   90.0   0.0
-500.0   60.0   16.666666666666668
-450.0   60.0   0.0
-450.0   90.0   0.0
-500.0   90.0   0.0
-450.0   90.0   16.666666666666668
-500.0   60.0   16.666666666666668
-500.0   90.0   16.666666666666668
-450.0   90.0   16.666666666666668
-500.0   90.0   0.0
-500.0   60.0   16.666666666666668
-450.0   90.0   16.666666666666668
-450.0   60.0   16.666666666666668
-450.0   60.0   0.0
-500.0   60.0   16.666666666666668
-450.0   90.0   16.666666666666668
-450.0   60.0   0.0
-500.0   90.0   0.0
-500.0   60.0   16.666666666666668
-450.0   60.0   16.666666666666668
-500.0   90.0   16.666666666666668
-500.0   60.0   33.333333333333336
-450.0   60.0   16.666666666666668
-450.0   90.0   16.666666666666668
-500.0   90.0   16.666666666666668
-450.0   90.0   33.333333333333336
-500.0   60.0   33.333333333333336
-500.0   90.0   33.333333333333336
-450.0   90.0   33.333333333333336
-500.0   90.0   16.666666666666668
-500.0   60.0   33.333333333333336
-450.0   90.0   33.333333333333336
-450.0   60.0   33.333333333333336
-450.0   60.0   16.666666666666668
-500.0   60.0   33.333333333333336
-450.0   90.0   33.333333333333336
-450.0   60.0   16.666666666666668
-500.0   90.0   16.666666666666668
-500.0   60.0   33.333333333333336
-450.0   60.0   33.333333333333336
-500.0   90.0   33.333333333333336
-500.0   60.0   50.0
-450.0   60.0   33.333333333333336
-450.0   90.0   33.333333333333336
-500.0   90.0   33.333333333333336
-450.0   90.0   50.0
-500.0   60.0   50.0
-500.0   90.0   50.0
-450.0   90.0   50.0
-500.0   90.0   33.333333333333336
-500.0   60.0   50.0
-450.0   90.0   50.0
-450.0   60.0   50.0
-450.0   60.0   33.333333333333336
-500.0   60.0   50.0
-450.0   90.0   50.0
-450.0   60.0   33.333333333333336
-500.0   90.0   33.333333333333336
-500.0   90.0   0.0
-450.0   90.0   0.0
-500.0   120.0   0.0
-500.0   90.0   16.666666666666668
-450.0   90.0   0.0
-450.0   120.0   0.0
-500.0   120.0   0.0
-450.0   120.0   16.666666666666668
-500.0   90.0   16.666666666666668
-500.0   120.0   16.666666666666668
-450.0   120.0   16.666666666666668
-500.0   120.0   0.0
-500.0   90.0   16.666666666666668
-450.0   120.0   16.666666666666668
-450.0   90.0   16.666666666666668
-450.0   90.0   0.0
-500.0   90.0   16.666666666666668
-450.0   120.0   16.666666666666668
-450.0   90.0   0.0
-500.0   120.0   0.0
-500.0   90.0   16.666666666666668
-450.0   90.0   16.666666666666668
-500.0   120.0   16.666666666666668
-500.0   90.0   33.333333333333336
-450.0   90.0   16.666666666666668
-450.0   120.0   16.666666666666668
-500.0   120.0   16.666666666666668
-450.0   120.0   33.333333333333336
-500.0   90.0   33.333333333333336
-500.0   120.0   33.333333333333336
-450.0   120.0   33.333333333333336
-500.0   120.0   16.666666666666668
-500.0   90.0   33.333333333333336
-450.0   120.0   33.333333333333336
-450.0   90.0   33.333333333333336
-450.0   90.0   16.666666666666668
-500.0   90.0   33.333333333333336
-450.0   120.0   33.333333333333336
-450.0   90.0   16.666666666666668
-500.0   120.0   16.666666666666668
-500.0   90.0   33.333333333333336
-450.0   90.0   33.333333333333336
-500.0   120.0   33.333333333333336
-500.0   90.0   50.0
-450.0   90.0   33.333333333333336
-450.0   120.0   33.333333333333336
-500.0   120.0   33.333333333333336
-450.0   120.0   50.0
-500.0   90.0   50.0
-500.0   120.0   50.0
-450.0   120.0   50.0
-500.0   120.0   33.333333333333336
-500.0   90.0   50.0
-450.0   120.0   50.0
-450.0   90.0   50.0
-450.0   90.0   33.333333333333336
-500.0   90.0   50.0
-450.0   120.0   50.0
-450.0   90.0   33.333333333333336
-500.0   120.0   33.333333333333336
-500.0   120.0   0.0
-450.0   120.0   0.0
-500.0   150.0   0.0
-500.0   120.0   16.666666666666668
-450.0   120.0   0.0
-450.0   150.0   0.0
-500.0   150.0   0.0
-450.0   150.0   16.666666666666668
-500.0   120.0   16.666666666666668
-500.0   150.0   16.666666666666668
-450.0   150.0   16.666666666666668
-500.0   150.0   0.0
-500.0   120.0   16.666666666666668
-450.0   150.0   16.666666666666668
-450.0   120.0   16.666666666666668
-450.0   120.0   0.0
-500.0   120.0   16.666666666666668
-450.0   150.0   16.666666666666668
-450.0   120.0   0.0
-500.0   150.0   0.0
-500.0   120.0   16.666666666666668
-450.0   120.0   16.666666666666668
-500.0   150.0   16.666666666666668
-500.0   120.0   33.333333333333336
-450.0   120.0   16.666666666666668
-450.0   150.0   16.666666666666668
-500.0   150.0   16.666666666666668
-450.0   150.0   33.333333333333336
-500.0   120.0   33.333333333333336
-500.0   150.0   33.333333333333336
-450.0   150.0   33.333333333333336
-500.0   150.0   16.666666666666668
-500.0   120.0   33.333333333333336
-450.0   150.0   33.333333333333336
-450.0   120.0   33.333333333333336
-450.0   120.0   16.666666666666668
-500.0   120.0   33.333333333333336
-450.0   150.0   33.333333333333336
-450.0   120.0   16.666666666666668
-500.0   150.0   16.666666666666668
-500.0   120.0   33.333333333333336
-450.0   120.0   33.333333333333336
-500.0   150.0   33.333333333333336
-500.0   120.0   50.0
-450.0   120.0   33.333333333333336
-450.0   150.0   33.333333333333336
-500.0   150.0   33.333333333333336
-450.0   150.0   50.0
-500.0   120.0   50.0
-500.0   150.0   50.0
-450.0   150.0   50.0
-500.0   150.0   33.333333333333336
-500.0   120.0   50.0
-450.0   150.0   50.0
-450.0   120.0   50.0
-450.0   120.0   33.333333333333336
-500.0   120.0   50.0
-450.0   150.0   50.0
-450.0   120.0   33.333333333333336
-500.0   150.0   33.333333333333336
-450.0   0.0   0.0
-400.0   0.0   0.0
-450.0   30.0   0.0
-450.0   0.0   16.666666666666668
-400.0   0.0   0.0
-400.0   30.0   0.0
-450.0   30.0   0.0
-400.0   30.0   16.666666666666668
-450.0   0.0   16.666666666666668
-450.0   30.0   16.666666666666668
-400.0   30.0   16.666666666666668
-450.0   30.0   0.0
-450.0   0.0   16.666666666666668
-400.0   30.0   16.666666666666668
-400.0   0.0   16.666666666666668
-400.0   0.0   0.0
-450.0   0.0   16.666666666666668
-400.0   30.0   16.666666666666668
-400.0   0.0   0.0
-450.0   30.0   0.0
-450.0   0.0   16.666666666666668
-400.0   0.0   16.666666666666668
-450.0   30.0   16.666666666666668
[...]
          <PointData>  
             <DataArray type="Float64" NumberOfComponents="3" Name="Strains" format="ascii">   
-8.811470777282684e-05   0.0   -5.784762011345662e-05
-8.811470777282684e-05   0.0   -5.784762011345662e-05
-8.811470777282684e-05   0.0   -5.784762011345662e-05
-8.811470777282684e-05   0.0   -5.784762011345662e-05
-5.606733686609902e-05   9.759060494663477e-06   1.4201010278877259e-06
-5.606733686609902e-05   9.759060494663477e-06   1.4201010278877259e-06
-5.606733686609902e-05   9.759060494663477e-06   1.4201010278877259e-06
-5.606733686609902e-05   9.759060494663477e-06   1.4201010278877259e-06
-5.495745030111146e-05   0.0   -5.45990830971456e-05
-5.495745030111146e-05   0.0   -5.45990830971456e-05
-5.495745030111146e-05   0.0   -5.45990830971456e-05
-5.495745030111146e-05   0.0   -5.45990830971456e-05
-9.221490587969393e-05   1.1712495372744438e-05   4.6917897684542746e-07
-9.221490587969393e-05   1.1712495372744438e-05   4.6917897684542746e-07
-9.221490587969393e-05   1.1712495372744438e-05   4.6917897684542746e-07
-9.221490587969393e-05   1.1712495372744438e-05   4.6917897684542746e-07
-7.153607903696903e-05   2.7071141802591735e-06   -2.8592303712204888e-05
-7.153607903696903e-05   2.7071141802591735e-06   -2.8592303712204888e-05
-7.153607903696903e-05   2.7071141802591735e-06   -2.8592303712204888e-05
-7.153607903696903e-05   2.7071141802591735e-06   -2.8592303712204888e-05
-9.221490587969409e-05   0.0   -6.162658032079228e-05
-9.221490587969409e-05   0.0   -6.162658032079228e-05
-9.221490587969409e-05   0.0   -6.162658032079228e-05
-9.221490587969409e-05   0.0   -6.162658032079228e-05
-5.495745030111146e-05   1.1712495372744451e-05   7.496676200492109e-06
-5.495745030111146e-05   1.1712495372744451e-05   7.496676200492109e-06
-5.495745030111146e-05   1.1712495372744451e-05   7.496676200492109e-06
-5.495745030111146e-05   1.1712495372744451e-05   7.496676200492109e-06
-5.511129806235679e-05   0.0   -5.593516943382347e-05
-5.511129806235679e-05   0.0   -5.593516943382347e-05
-5.511129806235679e-05   0.0   -5.593516943382347e-05
-5.511129806235679e-05   0.0   -5.593516943382347e-05
-9.509391057788338e-05   1.2548479668887281e-05   3.173430290722058e-06
-9.509391057788338e-05   1.2548479668887281e-05   3.173430290722058e-06
-9.509391057788338e-05   1.2548479668887281e-05   3.173430290722058e-06
-9.509391057788338e-05   1.2548479668887281e-05   3.173430290722058e-06
-7.366310197102531e-05   4.7428424058073386e-06   -2.7861201696193394e-05
-7.366310197102531e-05   4.7428424058073386e-06   -2.7861201696193394e-05
-7.366310197102531e-05   4.7428424058073386e-06   -2.7861201696193394e-05
-7.366310197102531e-05   4.7428424058073386e-06   -2.7861201696193394e-05
-9.509391057788354e-05   0.0   -6.346425723515585e-05
-9.509391057788354e-05   0.0   -6.346425723515585e-05
-9.509391057788354e-05   0.0   -6.346425723515585e-05
-9.509391057788354e-05   0.0   -6.346425723515585e-05
-5.511129806235669e-05   1.2548479668887281e-05   1.0702518092054427e-05
-5.511129806235669e-05   1.2548479668887281e-05   1.0702518092054427e-05
-5.511129806235669e-05   1.2548479668887281e-05   1.0702518092054427e-05
-5.511129806235669e-05   1.2548479668887281e-05   1.0702518092054427e-05
-5.5081043023665526e-05   0.0   -5.6278670412893195e-05
-5.5081043023665526e-05   0.0   -5.6278670412893195e-05
-5.5081043023665526e-05   0.0   -5.6278670412893195e-05
-5.5081043023665526e-05   0.0   -5.6278670412893195e-05
-0.00010129721312654971   1.4296246229896729e-05   1.2170532020642643e-05
-0.00010129721312654971   1.4296246229896729e-05   1.2170532020642643e-05
-0.00010129721312654971   1.4296246229896729e-05   1.2170532020642643e-05
-0.00010129721312654971   1.4296246229896729e-05   1.2170532020642643e-05
-7.508747680077441e-05   5.987989018552218e-06   -2.6527407528842763e-05
-7.508747680077441e-05   5.987989018552218e-06   -2.6527407528842763e-05
-7.508747680077441e-05   5.987989018552218e-06   -2.6527407528842763e-05
-7.508747680077441e-05   5.987989018552218e-06   -2.6527407528842763e-05
-5.606733686609911e-05   0.0   -5.199218381665853e-05
-5.606733686609911e-05   0.0   -5.199218381665853e-05
-5.606733686609911e-05   0.0   -5.199218381665853e-05
-5.606733686609911e-05   0.0   -5.199218381665853e-05
-2.553468900691537e-05   3.5787844187872887e-06   1.0428332665867132e-06
-2.553468900691537e-05   3.5787844187872887e-06   1.0428332665867132e-06
-2.553468900691537e-05   3.5787844187872887e-06   1.0428332665867132e-06
-2.553468900691537e-05   3.5787844187872887e-06   1.0428332665867132e-06
-2.4557789629964746e-05   0.0   -5.154156849151608e-05
-2.4557789629964746e-05   0.0   -5.154156849151608e-05
-2.4557789629964746e-05   0.0   -5.154156849151608e-05
-2.4557789629964746e-05   0.0   -5.154156849151608e-05
-5.495745030111146e-05   5.095857676049056e-06   -3.932981978567825e-06
-5.495745030111146e-05   5.095857676049056e-06   -3.932981978567825e-06
-5.495745030111146e-05   5.095857676049056e-06   -3.932981978567825e-06
-5.495745030111146e-05   5.095857676049056e-06   -3.932981978567825e-06
-4.0312563248031884e-05   3.7551277095196296e-07   -2.550892012397535e-05
-4.0312563248031884e-05   3.7551277095196296e-07   -2.550892012397535e-05
-4.0312563248031884e-05   3.7551277095196296e-07   -2.550892012397535e-05
-4.0312563248031884e-05   3.7551277095196296e-07   -2.550892012397535e-05
-5.495745030111141e-05   0.0   -5.4599083097145555e-05
-5.495745030111141e-05   0.0   -5.4599083097145555e-05
-5.495745030111141e-05   0.0   -5.4599083097145555e-05
-5.495745030111141e-05   0.0   -5.4599083097145555e-05
-2.4557789629964746e-05   5.095857676049042e-06   -8.754673729383932e-07
-2.4557789629964746e-05   5.095857676049042e-06   -8.754673729383932e-07
-2.4557789629964746e-05   5.095857676049042e-06   -8.754673729383932e-07
-2.4557789629964746e-05   5.095857676049042e-06   -8.754673729383932e-07
-2.4008666051394713e-05   0.0   -5.218831806579588e-05
-2.4008666051394713e-05   0.0   -5.218831806579588e-05
-2.4008666051394713e-05   0.0   -5.218831806579588e-05
-2.4008666051394713e-05   0.0   -5.218831806579588e-05
-5.511129806235679e-05   6.244752280045823e-06   -4.097449415553422e-06
-5.511129806235679e-05   6.244752280045823e-06   -4.097449415553422e-06
-5.511129806235679e-05   6.244752280045823e-06   -4.097449415553422e-06
-5.511129806235679e-05   6.244752280045823e-06   -4.097449415553422e-06
-3.948305817625303e-05   2.0089708594580314e-06   -2.7603047040040117e-05
-3.948305817625303e-05   2.0089708594580314e-06   -2.7603047040040117e-05
-3.948305817625303e-05   2.0089708594580314e-06   -2.7603047040040117e-05
-3.948305817625303e-05   2.0089708594580314e-06   -2.7603047040040117e-05
-5.511129806235679e-05   0.0   -5.593516943382347e-05
-5.511129806235679e-05   0.0   -5.593516943382347e-05
-5.511129806235679e-05   0.0   -5.593516943382347e-05
-5.511129806235679e-05   0.0   -5.593516943382347e-05
-2.4008666051394754e-05   6.244752280045823e-06   -3.505980475259252e-07
-2.4008666051394754e-05   6.244752280045823e-06   -3.505980475259252e-07
-2.4008666051394754e-05   6.244752280045823e-06   -3.505980475259252e-07
-2.4008666051394754e-05   6.244752280045823e-06   -3.505980475259252e-07
-2.3508457373627188e-05   0.0   -5.1918609024739406e-05
-2.3508457373627188e-05   0.0   -5.1918609024739406e-05
-2.3508457373627188e-05   0.0   -5.1918609024739406e-05
-2.3508457373627188e-05   0.0   -5.1918609024739406e-05
-5.508104302366538e-05   7.266768980256216e-06   -3.657694329495953e-06
-5.508104302366538e-05   7.266768980256216e-06   -3.657694329495953e-06
-5.508104302366538e-05   7.266768980256216e-06   -3.657694329495953e-06
-5.508104302366538e-05   7.266768980256216e-06   -3.657694329495953e-06
-3.9309877717991975e-05   3.3471336742366852e-06   -2.7591188655340103e-05
-3.9309877717991975e-05   3.3471336742366852e-06   -2.7591188655340103e-05
-3.9309877717991975e-05   3.3471336742366852e-06   -2.7591188655340103e-05
-3.9309877717991975e-05   3.3471336742366852e-06   -2.7591188655340103e-05
-2.5534689006915415e-05   0.0   -4.9844913165386154e-05
-2.5534689006915415e-05   0.0   -4.9844913165386154e-05
-2.5534689006915415e-05   0.0   -4.9844913165386154e-05
-2.5534689006915415e-05   0.0   -4.9844913165386154e-05
3.311951520451573e-06   -4.588374977388581e-07   -2.042481451751105e-06
3.311951520451573e-06   -4.588374977388581e-07   -2.042481451751105e-06
3.311951520451573e-06   -4.588374977388581e-07   -2.042481451751105e-06
3.311951520451573e-06   -4.588374977388581e-07   -2.042481451751105e-06
3.936034150393771e-06   0.0   -5.0999424514461206e-05
3.936034150393771e-06   0.0   -5.0999424514461206e-05
3.936034150393771e-06   0.0   -5.0999424514461206e-05
3.936034150393771e-06   0.0   -5.0999424514461206e-05
-2.4557789629964746e-05   9.03573295091319e-07   -4.05186219091854e-06
-2.4557789629964746e-05   9.03573295091319e-07   -4.05186219091854e-06
-2.4557789629964746e-05   9.03573295091319e-07   -4.05186219091854e-06
-2.4557789629964746e-05   9.03573295091319e-07   -4.05186219091854e-06
-1.0799327428260797e-05   -9.62092790896022e-07   -2.586323287549937e-05
-1.0799327428260797e-05   -9.62092790896022e-07   -2.586323287549937e-05
-1.0799327428260797e-05   -9.62092790896022e-07   -2.586323287549937e-05
-1.0799327428260797e-05   -9.62092790896022e-07   -2.586323287549937e-05
-2.455778962996479e-05   0.0   -5.154156849151618e-05
-2.455778962996479e-05   0.0   -5.154156849151618e-05
-2.455778962996479e-05   0.0   -5.154156849151618e-05
-2.455778962996479e-05   0.0   -5.154156849151618e-05
3.9360341503937785e-06   9.03573295091319e-07   -3.5097182138637563e-06
3.9360341503937785e-06   9.03573295091319e-07   -3.5097182138637563e-06
3.9360341503937785e-06   9.03573295091319e-07   -3.5097182138637563e-06
3.9360341503937785e-06   9.03573295091319e-07   -3.5097182138637563e-06
4.428750660908976e-06   0.0   -5.092637444946985e-05
4.428750660908976e-06   0.0   -5.092637444946985e-05
4.428750660908976e-06   0.0   -5.092637444946985e-05
4.428750660908976e-06   0.0   -5.092637444946985e-05
-2.4008666051394672e-05   2.1032393605433794e-06   -4.79262354528974e-06
-2.4008666051394672e-05   2.1032393605433794e-06   -4.79262354528974e-06
-2.4008666051394672e-05   2.1032393605433794e-06   -4.79262354528974e-06
-2.4008666051394672e-05   2.1032393605433794e-06   -4.79262354528974e-06
-1.0064519484527884e-05   5.126617017051931e-07   -2.707852122809818e-05
-1.0064519484527884e-05   5.126617017051931e-07   -2.707852122809818e-05
-1.0064519484527884e-05   5.126617017051931e-07   -2.707852122809818e-05
-1.0064519484527884e-05   5.126617017051931e-07   -2.707852122809818e-05
-2.4008666051394754e-05   0.0   -5.218831806579597e-05
-2.4008666051394754e-05   0.0   -5.218831806579597e-05
-2.4008666051394754e-05   0.0   -5.218831806579597e-05
-2.4008666051394754e-05   0.0   -5.218831806579597e-05
4.428750660908984e-06   2.103239360543393e-06   -3.530679928963716e-06
4.428750660908984e-06   2.103239360543393e-06   -3.530679928963716e-06
4.428750660908984e-06   2.103239360543393e-06   -3.530679928963716e-06
4.428750660908984e-06   2.103239360543393e-06   -3.530679928963716e-06
5.091323994772181e-06   0.0   -4.982299471603475e-05
5.091323994772181e-06   0.0   -4.982299471603475e-05
5.091323994772181e-06   0.0   -4.982299471603475e-05
5.091323994772181e-06   0.0   -4.982299471603475e-05
-2.3508457373627167e-05   3.4926905145076875e-06   -4.252306744073792e-06
-2.3508457373627167e-05   3.4926905145076875e-06   -4.252306744073792e-06
-2.3508457373627167e-05   3.4926905145076875e-06   -4.252306744073792e-06
-2.3508457373627167e-05   3.4926905145076875e-06   -4.252306744073792e-06
-9.458671028311265e-06   1.9711027914676106e-06   -2.675566468577622e-05
-9.458671028311265e-06   1.9711027914676106e-06   -2.675566468577622e-05
-9.458671028311265e-06   1.9711027914676106e-06   -2.675566468577622e-05
-9.458671028311265e-06   1.9711027914676106e-06   -2.675566468577622e-05
3.3119515204515784e-06   0.0   -5.012021566402946e-05
3.3119515204515784e-06   0.0   -5.012021566402946e-05
3.3119515204515784e-06   0.0   -5.012021566402946e-05
3.3119515204515784e-06   0.0   -5.012021566402946e-05
3.462551490355021e-05   -4.061225247406014e-06   -3.6767850730845547e-07
3.462551490355021e-05   -4.061225247406014e-06   -3.6767850730845547e-07
3.462551490355021e-05   -4.061225247406014e-06   -3.6767850730845547e-07
3.462551490355021e-05   -4.061225247406014e-06   -3.6767850730845547e-07
3.468799026798772e-05   0.0   -5.28362072242441e-05
3.468799026798772e-05   0.0   -5.28362072242441e-05
3.468799026798772e-05   0.0   -5.28362072242441e-05
3.468799026798772e-05   0.0   -5.28362072242441e-05
3.9360341503937785e-06   -3.0613045163045233e-06   2.5383568152850976e-07
3.9360341503937785e-06   -3.0613045163045233e-06   2.5383568152850976e-07
3.9360341503937785e-06   -3.0613045163045233e-06   2.5383568152850976e-07
3.9360341503937785e-06   -3.0613045163045233e-06   2.5383568152850976e-07
1.899997089421965e-05   -2.2633263001788613e-06   -2.533151248785664e-05
1.899997089421965e-05   -2.2633263001788613e-06   -2.533151248785664e-05
1.899997089421965e-05   -2.2633263001788613e-06   -2.533151248785664e-05
1.899997089421965e-05   -2.2633263001788613e-06   -2.533151248785664e-05
3.936034150393785e-06   0.0   -5.099942451446138e-05
3.936034150393785e-06   0.0   -5.099942451446138e-05
3.936034150393785e-06   0.0   -5.099942451446138e-05
3.936034150393785e-06   0.0   -5.099942451446138e-05
3.468799026798766e-05   -3.0613045163045233e-06   -1.5829470282542103e-06
3.468799026798766e-05   -3.0613045163045233e-06   -1.5829470282542103e-06
3.468799026798766e-05   -3.0613045163045233e-06   -1.5829470282542103e-06
3.468799026798766e-05   -3.0613045163045233e-06   -1.5829470282542103e-06
3.454020686997893e-05   0.0   -5.208173262049209e-05
3.454020686997893e-05   0.0   -5.208173262049209e-05
3.454020686997893e-05   0.0   -5.208173262049209e-05
3.454020686997893e-05   0.0   -5.208173262049209e-05
4.428750660908984e-06   -1.925596951703583e-06   -7.406141010200437e-07
4.428750660908984e-06   -1.925596951703583e-06   -7.406141010200437e-07
4.428750660908984e-06   -1.925596951703583e-06   -7.406141010200437e-07
4.428750660908984e-06   -1.925596951703583e-06   -7.406141010200437e-07
1.9238120510186358e-05   -9.019234216922579e-07   -2.6037101301155766e-05
1.9238120510186358e-05   -9.019234216922579e-07   -2.6037101301155766e-05
1.9238120510186358e-05   -9.019234216922579e-07   -2.6037101301155766e-05
1.9238120510186358e-05   -9.019234216922579e-07   -2.6037101301155766e-05
4.428750660908984e-06   0.0   -5.092637444946994e-05
4.428750660908984e-06   0.0   -5.092637444946994e-05
4.428750660908984e-06   0.0   -5.092637444946994e-05
4.428750660908984e-06   0.0   -5.092637444946994e-05
3.454020686997887e-05   -1.925596951703583e-06   -1.8959722720421885e-06
3.454020686997887e-05   -1.925596951703583e-06   -1.8959722720421885e-06
3.454020686997887e-05   -1.925596951703583e-06   -1.8959722720421885e-06
3.454020686997887e-05   -1.925596951703583e-06   -1.8959722720421885e-06
3.520989644507425e-05   0.0   -5.006269898400085e-05
3.520989644507425e-05   0.0   -5.006269898400085e-05
3.520989644507425e-05   0.0   -5.006269898400085e-05
3.520989644507425e-05   0.0   -5.006269898400085e-05
5.091323994772189e-06   -3.99507113276685e-07   3.7462603446859215e-07
5.091323994772189e-06   -3.99507113276685e-07   3.7462603446859215e-07
5.091323994772189e-06   -3.99507113276685e-07   3.7462603446859215e-07
5.091323994772189e-06   -3.99507113276685e-07   3.7462603446859215e-07
1.9819323552991617e-05   7.197295545575784e-07   -2.4843581896597655e-05
1.9819323552991617e-05   7.197295545575784e-07   -2.4843581896597655e-05
1.9819323552991617e-05   7.197295545575784e-07   -2.4843581896597655e-05
1.9819323552991617e-05   7.197295545575784e-07   -2.4843581896597655e-05
3.4625514903550334e-05   0.0   -5.255695081247308e-05
3.4625514903550334e-05   0.0   -5.255695081247308e-05
3.4625514903550334e-05   0.0   -5.255695081247308e-05
3.4625514903550334e-05   0.0   -5.255695081247308e-05
7.817683139686965e-05   -1.0295796335178364e-05   1.3851098875285685e-05
7.817683139686965e-05   -1.0295796335178364e-05   1.3851098875285685e-05
7.817683139686965e-05   -1.0295796335178364e-05   1.3851098875285685e-05
7.817683139686965e-05   -1.0295796335178364e-05   1.3851098875285685e-05
7.342183676005828e-05   0.0   -5.8091970913348014e-05
7.342183676005828e-05   0.0   -5.8091970913348014e-05
7.342183676005828e-05   0.0   -5.8091970913348014e-05
7.342183676005828e-05   0.0   -5.8091970913348014e-05
3.468799026798766e-05   -8.759606148506512e-06   1.172020359587348e-05
3.468799026798766e-05   -8.759606148506512e-06   1.172020359587348e-05
3.468799026798766e-05   -8.759606148506512e-06   1.172020359587348e-05
3.468799026798766e-05   -8.759606148506512e-06   1.172020359587348e-05
5.4023675831804305e-05   -4.612516750729117e-06   -2.2994192649153896e-05
5.4023675831804305e-05   -4.612516750729117e-06   -2.2994192649153896e-05
5.4023675831804305e-05   -4.612516750729117e-06   -2.2994192649153896e-05
5.4023675831804305e-05   -4.612516750729117e-06   -2.2994192649153896e-05
3.4687990267987696e-05   0.0   -5.283620722424405e-05
3.4687990267987696e-05   0.0   -5.283620722424405e-05
3.4687990267987696e-05   0.0   -5.283620722424405e-05
3.4687990267987696e-05   0.0   -5.283620722424405e-05
7.342183676005828e-05   -8.759606148506526e-06   6.464439906769579e-06
7.342183676005828e-05   -8.759606148506526e-06   6.464439906769579e-06
7.342183676005828e-05   -8.759606148506526e-06   6.464439906769579e-06
7.342183676005828e-05   -8.759606148506526e-06   6.464439906769579e-06
7.122947103041006e-05   0.0   -5.688421559955945e-05
7.122947103041006e-05   0.0   -5.688421559955945e-05
7.122947103041006e-05   0.0   -5.688421559955945e-05
7.122947103041006e-05   0.0   -5.688421559955945e-05
3.454020686997887e-05   -8.004138298445585e-06   9.067040980226441e-06
3.454020686997887e-05   -8.004138298445585e-06   9.067040980226441e-06
3.454020686997887e-05   -8.004138298445585e-06   9.067040980226441e-06
3.454020686997887e-05   -8.004138298445585e-06   9.067040980226441e-06
5.295873064919886e-05   -3.3733403127628024e-06   -2.440897744321645e-05
5.295873064919886e-05   -3.3733403127628024e-06   -2.440897744321645e-05
5.295873064919886e-05   -3.3733403127628024e-06   -2.440897744321645e-05
5.295873064919886e-05   -3.3733403127628024e-06   -2.440897744321645e-05
3.454020686997893e-05   0.0   -5.208173262049209e-05
3.454020686997893e-05   0.0   -5.208173262049209e-05
3.454020686997893e-05   0.0   -5.208173262049209e-05
3.454020686997893e-05   0.0   -5.208173262049209e-05
7.122947103040994e-05   -8.004138298445585e-06   4.264558001159085e-06
7.122947103040994e-05   -8.004138298445585e-06   4.264558001159085e-06
7.122947103040994e-05   -8.004138298445585e-06   4.264558001159085e-06
7.122947103040994e-05   -8.004138298445585e-06   4.264558001159085e-06
6.796510978901279e-05   0.0   -5.379496724956085e-05
6.796510978901279e-05   0.0   -5.379496724956085e-05
6.796510978901279e-05   0.0   -5.379496724956085e-05
6.796510978901279e-05   0.0   -5.379496724956085e-05
3.520989644507416e-05   -6.220447109266648e-06   4.529323255896745e-06
3.520989644507416e-05   -6.220447109266648e-06   4.529323255896745e-06
3.520989644507416e-05   -6.220447109266648e-06   4.529323255896745e-06
3.520989644507416e-05   -6.220447109266648e-06   4.529323255896745e-06
5.1252658329495766e-05   -1.4276955242239608e-06   -2.508426416916485e-05
5.1252658329495766e-05   -1.4276955242239608e-06   -2.508426416916485e-05
5.1252658329495766e-05   -1.4276955242239608e-06   -2.508426416916485e-05
5.1252658329495766e-05   -1.4276955242239608e-06   -2.508426416916485e-05
-7.643886827158201e-05   9.759060494663463e-06   -5.0165597483219826e-05
-7.643886827158201e-05   9.759060494663463e-06   -5.0165597483219826e-05
-7.643886827158201e-05   9.759060494663463e-06   -5.0165597483219826e-05
-7.643886827158201e-05   9.759060494663463e-06   -5.0165597483219826e-05