<?xml version="1.0"?> 
<VTKFile type="UnstructuredGrid"> 
   <UnstructuredGrid> 
      <Piece NumberOfPoints="6000"  NumberOfCells="1500">  
          <Points>  
             <DataArray type="Float64" NumberOfComponents="3" format="ascii">   
-500.0   0.0   0.0
-450.0   0.0   0.0
-500.0   30.0   0.0
-500.0   0.0   16.666666666666668
-450.0   0.0   0.0
-450.0   30.0   0.0
-500.0   30.0   0.0
-450.0   30.0   16.666666666666668
-500.0   0.0   16.666666666666668
-500.0   30.0   16.666666666666668
-450.0   30.0   16.666666666666668
-500.0   30.0   0.0
-500.0   0.0   16.666666666666668
-450.0   30.0   16.666666666666668
-450.0   0.0   16.666666666666668
-450.0   0.0   0.0
-500.0   0.0   16.666666666666668
-450.0   30.0   16.666666666666668
-450.0   0.0   0.0
-500.0   30.0   0.0
-500.0   0.0   16.666666666666668
-450.0   0.0   16.666666666666668
-500.0   30.0   16.666666666666668
-500.0   0.0   33.333333333333336
-450.0   0.0   16.666666666666668
-450.0   30.0   16.666666666666668
-500.0   30.0   16.666666666666668
-450.0   30.0   33.333333333333336
-500.0   0.0   33.333333333333336
-500.0   30.0   33.333333333333336
-450.0   30.0   33.333333333333336
-500.0   30.0   16.666666666666668
-500.0   0.0   33.333333333333336
-450.0   30.0   33.333333333333336
-450.0   0.0   33.333333333333336
-450.0   0.0   16.666666666666668
-500.0   0.0   33.333333333333336
-450.0   30.0   33.333333333333336
-450.0   0.0   16.666666666666668
-500.0   30.0   16.666666666666668
-500.0   0.0   33.333333333333336
-450.0   0.0   33.333333333333336
-500.0   30.0   33.333333333333336
-500.0   0.0   50.0
-450.0   0.0   33.333333333333336
-450.0   30.0   33.333333333333336
-500.0   30.0   33.333333333333336
-450.0   30.0   50.0
-500.0   0.0   50.0
-500.0   30.0   50.0
-450.0   30.0   50.0
-500.0   30.0   33.333333333333336
-500.0   0.0   50.0
-450.0   30.0   50.0
-450.0   0.0   50.0
-450.0   0.0   33.333333333333336
-500.0   0.0   50.0
-450.0   30.0   50.0
-450.0   0.0   33.333333333333336
-500.0   30.0   33.333333333333336
-500.0   30.0   0.0
-450.0   30.0   0.0
-500.0   60.0   0.0
-500.0   30.0   16.666666666666668
-450.0   30.0   0.0
-450.0   60.0   0.0
-500.0   60.0   0.0
-450.0   60.0   16.666666666666668
-500.0   30.0   16.666666666666668
-500.0   60.0   16.666666666666668
-450.0   60.0   16.666666666666668
-500.0   60.0   0.0
-500.0   30.0   16.666666666666668
-450.0   60.0   16.666666666666668
-450.0   30.0   16.666666666666668
-450.0   30.0   0.0
-500.0   30.0   16.666666666666668
-450.0   60.0   16.666666666666668
-450.0   30.0   0.0
-500.0   60.0   0.0
-500.0   30.0   16.666666666666668
-450.0   30.0   16.666666666666668
-500.0   60.0   16.666666666666668
-500.0   30.0   33.333333333333336
-450.0   30.0   16.666666666666668
-450.0   60.0   16.666666666666668
-500.0   60.0   16.666666666666668
-450.0   60.0   33.333333333333336
-500.0   30.0   33.333333333333336
-500.0   60.0   33.333333333333336
-450.0   60.0   33.333333333333336
-500.0   60.0   16.666666666666668
-500.0   30.0   33.333333333333336
-450.0   60.0   33.333333333333336
-450.0   30.0   33.333333333333336
-450.0   30.0   16.666666666666668
-500.0   30.0   33.333333333333336
-450.0   60.0   33.333333333333336
-450.0   30.0   16.666666666666668
-500.0   60.0   16.666666666666668
-500.0   30.0   33.333333333333336
-450.0   30.0   33.333333333333336
-500.0   60.0   33.333333333333336
-500.0   30.0   50.0
-450.0   30.0   33.333333333333336
-450.0   60.0   33.333333333333336
-500.0   60.0   33.333333333333336
-450.0   60.0   50.0
-500.0   30.0   50.0
-500.0   60.0   50.0
-450.0   60.0   50.0
-500.0   60.0   33.333333333333336
-500.0   30.0   50.0
-450.0   60.0   50.0
-450.0   30.0   50.0
-450.0   30.0   33.333333333333336
-500.0   30.0   50.0
-450.0   60.0   50.0
-450.0   30.0   33.333333333333336
-500.0   60.0   33.333333333333336
-500.0   60.0   0.0
-450.0   60.0   0.0
-500.0   90.0   0.0
-500.0   60.0   16.666666666666668
-450.0   60.0   0.0
-450.0   90.0   0.0
-500.0   90.0   0.0
-450.0   90.0   16.666666666666668
-500.0   60.0   16.666666666666668
-500.0   90.0   16.666666666666668
-450.0   90.0   16.666666666666668
-500.0   90.0   0.0
-500.0   60.0   16.666666666666668
-450.0   90.0   16.666666666666668
-450.0   60.0   16.666666666666668
-450.0   60.0   0.0
-500.0   60.0   16.666666666666668
-450.0   90.0   16.666666666666668
-450.0   60.0   0.0
-500.0   90.0   0.0
-500.0   60.0   16.666666666666668
-450.0   60.0   16.666666666666668
-500.0   90.0   16.666666666666668
-500.0   60.0   33.333333333333336
-450.0   60.0   16.666666666666668
-450.0   90.0   16.666666666666668
-500.0   90.0   16.666666666666668
-450.0   90.0   33.333333333333336
-500.0   60.0   33.333333333333336
-500.0   90.0   33.333333333333336
-450.0   90.0   33.333333333333336
-500.0   90.0   16.666666666666668
-500.0   60.0   33.333333333333336
-450.0   90.0   33.333333333333336
-450.0   60.0   33.333333333333336
-450.0   60.0   16.666666666666668
-500.0   60.0   33.333333333333336
-450.0   90.0   33.333333333333336
-450.0   60.0   16.666666666666668
-500.0   90.0   16.666666666666668
-500.0   60.0   33.333333333333336
-450.0   60.0   33.333333333333336
-500.0   90.0   33.333333333333336
-500.0   60.0   50.0
-450.0   60.0   33.333333333333336
-450.0   90.0   33.333333333333336
-500.0   90.0   33.333333333333336
-450.0   90.0   50.0
-500.0   60.0   50.0
-500.0   90.0   50.0
-450.0   90.0   50.0
-500.0   90.0   33.333333333333336
-500.0   60.0   50.0
-450.0   90.0   50.0
-450.0   60.0   50.0
-450.0   60.0   33.333333333333336
-500.0   60.0   50.0
-450.0   90.0   50.0
-450.0   60.0   33.333333333333336
-500.0   90.0   33.333333333333336
-500.0   90.0   0.0
-450.0   90.0   0.0
-500.0   120.0   0.0
-500.0   90.0   16.666666666666668
-450.0   90.0   0.0
-450.0   120.0   0.0
-500.0   120.0   0.0
-450.0   120.0   16.666666666666668
-500.0   90.0   16.666666666666668
-500.0   120.0   16.666666666666668
-450.0   120.0   16.666666666666668
-500.0   120.0   0.0
-500.0   90.0   16.666666666666668
-450.0   120.0   16.666666666666668
-450.0   90.0   16.666666666666668
-450.0   90.0   0.0
-500.0   90.0   16.666666666666668
-450.0   120.0   16.666666666666668
-450.0   90.0   0.0
-500.0   120.0   0.0
-500.0   90.0   16.666666666666668
-450.0   90.0   16.666666666666668
-500.0   120.0   16.666666666666668
-500.0   90.0   33.333333333333336
-450.0   90.0   16.666666666666668
-450.0   120.0   16.666666666666668
-500.0   120.0   16.666666666666668
-450.0   120.0   33.333333333333336
-500.0   90.0   33.333333333333336
-500.0   120.0   33.333333333333336
-450.0   120.0   33.333333333333336
-500.0   120.0   16.666666666666668
-500.0   90.0   33.333333333333336
-450.0   120.0   33.333333333333336
-450.0   90.0   33.333333333333336
-450.0   90.0   16.666666666666668
-500.0   90.0   33.333333333333336
-450.0   120.0   33.333333333333336
-450.0   90.0   16.666666666666668
-500.0   120.0   16.666666666666668
-500.0   90.0   33.333333333333336
-450.0   90.0   33.333333333333336
-500.0   120.0   33.333333333333336
-500.0   90.0   50.0
-450.0   90.0   33.333333333333336
-450.0   120.0   33.333333333333336
-500.0   120.0   33.333333333333336
-450.0   120.0   50.0
-500.0   90.0   50.0
-500.0   120.0   50.0
-450.0   120.0   50.0
-500.0   120.0   33.333333333333336
-500.0   90.0   50.0
-450.0   120.0   50.0
-450.0   90.0   50.0
-450.0   90.0   33.333333333333336
-500.0   90.0   50.0
-450.0   120.0   50.0
-450.0   90.0   33.333333333333336
-500.0   120.0   33.333333333333336
-500.0   120.0   0.0
-450.0   120.0   0.0
-500.0   150.0   0.0
-500.0   120.0   16.666666666666668
-450.0   120.0   0.0
-450.0   150.0   0.0
-500.0   150.0   0.0
-450.0   150.0   16.666666666666668
-500.0   120.0   16.666666666666668
-500.0   150.0   16.666666666666668
-450.0   150.0   16.666666666666668
-500.0   150.0   0.0
-500.0   120.0   16.666666666666668
-450.0   150.0   16.666666666666668
-450.0   120.0   16.666666666666668
-450.0   120.0   0.0
-500.0   120.0   16.666666666666668
-450.0   150.0   16.666666666666668
-450.0   120.0   0.0
-500.0   150.0   0.0
-500.0   120.0   16.666666666666668
-450.0   120.0   16.666666666666668
-500.0   150.0   16.666666666666668
-500.0   120.0   33.333333333333336
-450.0   120.0   16.666666666666668
-450.0   150.0   16.666666666666668
-500.0   150.0   16.666666666666668
-450.0   150.0   33.333333333333336
-500.0   120.0   33.333333333333336
-500.0   150.0   33.333333333333336
-450.0   150.0   33.333333333333336
-500.0   150.0   16.666666666666668
-500.0   120.0   33.333333333333336
-450.0   150.0   33.333333333333336
-450.0   120.0   33.333333333333336
-450.0   120.0   16.666666666666668
-500.0   120.0   33.333333333333336
-450.0   150.0   33.333333333333336
-450.0   120.0   16.666666666666668
-500.0   150.0   16.666666666666668
-500.0   120.0   33.333333333333336
-450.0   120.0   33.333333333333336
-500.0   150.0   33.333333333333336
-500.0   120.0   50.0
-450.0   120.0   33.333333333333336
-450.0   150.0   33.333333333333336
-500.0   150.0   33.333333333333336
-450.0   150.0   50.0
-500.0   120.0   50.0
-500.0   150.0   50.0
-450.0   150.0   50.0
-500.0   150.0   33.333333333333336
-500.0   120.0   50.0
-450.0   150.0   50.0
-450.0   120.0   50.0
-450.0   120.0   33.333333333333336
-500.0   120.0   50.0
-450.0   150.0   50.0
-450.0   120.0   33.333333333333336
-500.0   150.0   33.333333333333336
-450.0   0.0   0.0
-400.0   0.0   0.0
-450.0   30.0   0.0
-450.0   0.0   16.666666666666668
-400.0   0.0   0.0
-400.0   30.0   0.0
-450.0   30.0   0.0
-400.0   30.0   16.666666666666668
-450.0   0.0   16.666666666666668
-450.0   30.0   16.666666666666668
-400.0   30.0   16.666666666666668
-450.0   30.0   0.0
-450.0   0.0   16.666666666666668
-400.0   30.0   16.666666666666668
-400.0   0.0   16.666666666666668
-400.0   0.0   0.0
-450.0   0.0   16.666666666666668
-400.0   30.0   16.666666666666668
-400.0   0.0   0.0
-450.0   30.0   0.0
-450.0   0.0   16.666666666666668
-400.0   0.0   16.666666666666668
-450.0   30.0   16.666666666666668
[...]
          <PointData>  
             <DataArray type="Float64" NumberOfComponents="3" Name="Strains" format="ascii">   
-0.00010063189759967848   0.0   -6.60279900268589e-05
-0.00010063189759967848   0.0   -6.60279900268589e-05
-0.00010063189759967848   0.0   -6.60279900268589e-05
-0.00010063189759967848   0.0   -6.60279900268589e-05
-6.403569818432618e-05   1.1150327294092273e-05   1.6558720418501452e-06
-6.403569818432618e-05   1.1150327294092273e-05   1.6558720418501452e-06
-6.403569818432618e-05   1.1150327294092273e-05   1.6558720418501452e-06
-6.403569818432618e-05   1.1150327294092273e-05   1.6558720418501452e-06
-6.277061967548956e-05   0.0   -6.231517048247787e-05
-6.277061967548956e-05   0.0   -6.231517048247787e-05
-6.277061967548956e-05   0.0   -6.231517048247787e-05
-6.277061967548956e-05   0.0   -6.231517048247787e-05
-0.00010531770089546665   1.3379890609270883e-05   5.686971852550285e-07
-0.00010531770089546665   1.3379890609270883e-05   5.686971852550285e-07
-0.00010531770089546665   1.3379890609270883e-05   5.686971852550285e-07
-0.00010531770089546665   1.3379890609270883e-05   5.686971852550285e-07
-8.170125863758388e-05   3.0940162869841866e-06   -3.2620515317844206e-05
-8.170125863758388e-05   3.0940162869841866e-06   -3.2620515317844206e-05
-8.170125863758388e-05   3.0940162869841866e-06   -3.2620515317844206e-05
-8.170125863758388e-05   3.0940162869841866e-06   -3.2620515317844206e-05
-0.00010531770089546682   0.0   -7.03431048480404e-05
-0.00010531770089546682   0.0   -7.03431048480404e-05
-0.00010531770089546682   0.0   -7.03431048480404e-05
-0.00010531770089546682   0.0   -7.03431048480404e-05
-6.277061967548956e-05   1.337989060927091e-05   8.596631550817567e-06
-6.277061967548956e-05   1.337989060927091e-05   8.596631550817567e-06
-6.277061967548956e-05   1.337989060927091e-05   8.596631550817567e-06
-6.277061967548956e-05   1.337989060927091e-05   8.596631550817567e-06
-6.294909331254853e-05   0.0   -6.384081701998438e-05
-6.294909331254853e-05   0.0   -6.384081701998438e-05
-6.294909331254853e-05   0.0   -6.384081701998438e-05
-6.294909331254853e-05   0.0   -6.384081701998438e-05
-0.00010860916001978012   1.4334244199164391e-05   3.6587476392365694e-06
-0.00010860916001978012   1.4334244199164391e-05   3.6587476392365694e-06
-0.00010860916001978012   1.4334244199164391e-05   3.6587476392365694e-06
-0.00010860916001978012   1.4334244199164391e-05   3.6587476392365694e-06
-8.413339710400754e-05   5.418573190046684e-06   -3.178478794824708e-05
-8.413339710400754e-05   5.418573190046684e-06   -3.178478794824708e-05
-8.413339710400754e-05   5.418573190046684e-06   -3.178478794824708e-05
-8.413339710400754e-05   5.418573190046684e-06   -3.178478794824708e-05
-0.00010860916001978031   0.0   -7.244136353948304e-05
-0.00010860916001978031   0.0   -7.244136353948304e-05
-0.00010860916001978031   0.0   -7.244136353948304e-05
-0.00010860916001978031   0.0   -7.244136353948304e-05
-6.294909331254843e-05   1.4334244199164391e-05   1.225929415873519e-05
-6.294909331254843e-05   1.4334244199164391e-05   1.225929415873519e-05
-6.294909331254843e-05   1.4334244199164391e-05   1.225929415873519e-05
-6.294909331254843e-05   1.4334244199164391e-05   1.225929415873519e-05
-6.291763973707964e-05   0.0   -6.423261878089121e-05
-6.291763973707964e-05   0.0   -6.423261878089121e-05
-6.291763973707964e-05   0.0   -6.423261878089121e-05
-6.291763973707964e-05   0.0   -6.423261878089121e-05
-0.00011569843139317008   1.6328730152992996e-05   1.3938129220797299e-05
-0.00011569843139317008   1.6328730152992996e-05   1.3938129220797299e-05
-0.00011569843139317008   1.6328730152992996e-05   1.3938129220797299e-05
-0.00011569843139317008   1.6328730152992996e-05   1.3938129220797299e-05
-8.576339987842983e-05   6.84062063215985e-06   -3.0260724257936493e-05
-8.576339987842983e-05   6.84062063215985e-06   -3.0260724257936493e-05
-8.576339987842983e-05   6.84062063215985e-06   -3.0260724257936493e-05
-8.576339987842983e-05   6.84062063215985e-06   -3.0260724257936493e-05
-6.403569818432629e-05   0.0   -5.9337793650403526e-05
-6.403569818432629e-05   0.0   -5.9337793650403526e-05
-6.403569818432629e-05   0.0   -5.9337793650403526e-05
-6.403569818432629e-05   0.0   -5.9337793650403526e-05
-2.916052712699098e-05   4.089934337523076e-06   1.2414520476691375e-06
-2.916052712699098e-05   4.089934337523076e-06   1.2414520476691375e-06
-2.916052712699098e-05   4.089934337523076e-06   1.2414520476691375e-06
-2.916052712699098e-05   4.089934337523076e-06   1.2414520476691375e-06
-2.8047595072740203e-05   0.0   -5.882193404067576e-05
-2.8047595072740203e-05   0.0   -5.882193404067576e-05
-2.8047595072740203e-05   0.0   -5.882193404067576e-05
-2.8047595072740203e-05   0.0   -5.882193404067576e-05
-6.277061967548956e-05   5.822060736336668e-06   -4.443462811229036e-06
-6.277061967548956e-05   5.822060736336668e-06   -4.443462811229036e-06
-6.277061967548956e-05   5.822060736336668e-06   -4.443462811229036e-06
-6.277061967548956e-05   5.822060736336668e-06   -4.443462811229036e-06
-4.604164662853319e-05   4.2988300810638404e-07   -2.908977791921792e-05
-4.604164662853319e-05   4.2988300810638404e-07   -2.908977791921792e-05
-4.604164662853319e-05   4.2988300810638404e-07   -2.908977791921792e-05
-4.604164662853319e-05   4.2988300810638404e-07   -2.908977791921792e-05
-6.277061967548951e-05   0.0   -6.231517048247781e-05
-6.277061967548951e-05   0.0   -6.231517048247781e-05
-6.277061967548951e-05   0.0   -6.231517048247781e-05
-6.277061967548951e-05   0.0   -6.231517048247781e-05
-2.8047595072740203e-05   5.8220607363366545e-06   -9.502263694270309e-07
-2.8047595072740203e-05   5.8220607363366545e-06   -9.502263694270309e-07
-2.8047595072740203e-05   5.8220607363366545e-06   -9.502263694270309e-07
-2.8047595072740203e-05   5.8220607363366545e-06   -9.502263694270309e-07
-2.7423130635195886e-05   0.0   -5.9560607740320734e-05
-2.7423130635195886e-05   0.0   -5.9560607740320734e-05
-2.7423130635195886e-05   0.0   -5.9560607740320734e-05
-2.7423130635195886e-05   0.0   -5.9560607740320734e-05
-6.294909331254853e-05   7.133682132772577e-06   -4.630879224396713e-06
-6.294909331254853e-05   7.133682132772577e-06   -4.630879224396713e-06
-6.294909331254853e-05   7.133682132772577e-06   -4.630879224396713e-06
-6.294909331254853e-05   7.133682132772577e-06   -4.630879224396713e-06
-4.509687515534266e-05   2.295468951797524e-06   -3.148164824448789e-05
-4.509687515534266e-05   2.295468951797524e-06   -3.148164824448789e-05
-4.509687515534266e-05   2.295468951797524e-06   -3.148164824448789e-05
-4.509687515534266e-05   2.295468951797524e-06   -3.148164824448789e-05
-6.294909331254853e-05   0.0   -6.384081701998438e-05
-6.294909331254853e-05   0.0   -6.384081701998438e-05
-6.294909331254853e-05   0.0   -6.384081701998438e-05
-6.294909331254853e-05   0.0   -6.384081701998438e-05
-2.7423130635195933e-05   7.133682132772577e-06   -3.506699447331681e-07
-2.7423130635195933e-05   7.133682132772577e-06   -3.506699447331681e-07
-2.7423130635195933e-05   7.133682132772577e-06   -3.506699447331681e-07
-2.7423130635195933e-05   7.133682132772577e-06   -3.506699447331681e-07
-2.685474628139055e-05   0.0   -5.9252302013963224e-05
-2.685474628139055e-05   0.0   -5.9252302013963224e-05
-2.685474628139055e-05   0.0   -5.9252302013963224e-05
-2.685474628139055e-05   0.0   -5.9252302013963224e-05
-6.291763973707948e-05   8.300527944879883e-06   -4.127796354742698e-06
-6.291763973707948e-05   8.300527944879883e-06   -4.127796354742698e-06
-6.291763973707948e-05   8.300527944879883e-06   -4.127796354742698e-06
-6.291763973707948e-05   8.300527944879883e-06   -4.127796354742698e-06
-4.490191979696953e-05   3.823762505017596e-06   -3.146793699100881e-05
-4.490191979696953e-05   3.823762505017596e-06   -3.146793699100881e-05
-4.490191979696953e-05   3.823762505017596e-06   -3.146793699100881e-05
-4.490191979696953e-05   3.823762505017596e-06   -3.146793699100881e-05
-2.9160527126991032e-05   0.0   -5.688383304788968e-05
-2.9160527126991032e-05   0.0   -5.688383304788968e-05
-2.9160527126991032e-05   0.0   -5.688383304788968e-05
-2.9160527126991032e-05   0.0   -5.688383304788968e-05
3.7911967136155863e-06   -5.236549873284481e-07   -2.278486305942331e-06
3.7911967136155863e-06   -5.236549873284481e-07   -2.278486305942331e-06
3.7911967136155863e-06   -5.236549873284481e-07   -2.278486305942331e-06
3.7911967136155863e-06   -5.236549873284481e-07   -2.278486305942331e-06
4.500907538904756e-06   0.0   -5.8202718809777945e-05
4.500907538904756e-06   0.0   -5.8202718809777945e-05
4.500907538904756e-06   0.0   -5.8202718809777945e-05
4.500907538904756e-06   0.0   -5.8202718809777945e-05
-2.8047595072740203e-05   1.0320253848295326e-06   -4.574429687934153e-06
-2.8047595072740203e-05   1.0320253848295326e-06   -4.574429687934153e-06
-2.8047595072740203e-05   1.0320253848295326e-06   -4.574429687934153e-06
-2.8047595072740203e-05   1.0320253848295326e-06   -4.574429687934153e-06
-1.2329809794043108e-05   -1.0990714682403876e-06   -2.949208037392067e-05
-1.2329809794043108e-05   -1.0990714682403876e-06   -2.949208037392067e-05
-1.2329809794043108e-05   -1.0990714682403876e-06   -2.949208037392067e-05
-1.2329809794043108e-05   -1.0990714682403876e-06   -2.949208037392067e-05
-2.8047595072740254e-05   0.0   -5.8821934040675864e-05
-2.8047595072740254e-05   0.0   -5.8821934040675864e-05
-2.8047595072740254e-05   0.0   -5.8821934040675864e-05
-2.8047595072740254e-05   0.0   -5.8821934040675864e-05
4.500907538904764e-06   1.0320253848295326e-06   -3.955214457036438e-06
4.500907538904764e-06   1.0320253848295326e-06   -3.955214457036438e-06
4.500907538904764e-06   1.0320253848295326e-06   -3.955214457036438e-06
4.500907538904764e-06   1.0320253848295326e-06   -3.955214457036438e-06
5.060864738226939e-06   0.0   -5.8119562344591795e-05
5.060864738226939e-06   0.0   -5.8119562344591795e-05
5.060864738226939e-06   0.0   -5.8119562344591795e-05
5.060864738226939e-06   0.0   -5.8119562344591795e-05
-2.742313063519584e-05   2.4017423262148946e-06   -5.420615451282696e-06
-2.742313063519584e-05   2.4017423262148946e-06   -5.420615451282696e-06
-2.742313063519584e-05   2.4017423262148946e-06   -5.420615451282696e-06
-2.742313063519584e-05   2.4017423262148946e-06   -5.420615451282696e-06
-1.1493365167256632e-05   5.853097467366439e-07   -3.08803650168278e-05
-1.1493365167256632e-05   5.853097467366439e-07   -3.08803650168278e-05
-1.1493365167256632e-05   5.853097467366439e-07   -3.08803650168278e-05
-1.1493365167256632e-05   5.853097467366439e-07   -3.08803650168278e-05
-2.7423130635195933e-05   0.0   -5.9560607740320836e-05
-2.7423130635195933e-05   0.0   -5.9560607740320836e-05
-2.7423130635195933e-05   0.0   -5.9560607740320836e-05
-2.7423130635195933e-05   0.0   -5.9560607740320836e-05
5.060864738226948e-06   2.401742326214908e-06   -3.97957005555377e-06
5.060864738226948e-06   2.401742326214908e-06   -3.97957005555377e-06
5.060864738226948e-06   2.401742326214908e-06   -3.97957005555377e-06
5.060864738226948e-06   2.401742326214908e-06   -3.97957005555377e-06
5.814770956451624e-06   0.0   -5.685931613003104e-05
5.814770956451624e-06   0.0   -5.685931613003104e-05
5.814770956451624e-06   0.0   -5.685931613003104e-05
5.814770956451624e-06   0.0   -5.685931613003104e-05
-2.6854746281390526e-05   3.988309806553556e-06   -4.80310661755959e-06
-2.6854746281390526e-05   3.988309806553556e-06   -4.80310661755959e-06
-2.6854746281390526e-05   3.988309806553556e-06   -4.80310661755959e-06
-2.6854746281390526e-05   3.988309806553556e-06   -4.80310661755959e-06
-1.080417983937213e-05   2.2510763419080786e-06   -3.0511710608802944e-05
-1.080417983937213e-05   2.2510763419080786e-06   -3.0511710608802944e-05
-1.080417983937213e-05   2.2510763419080786e-06   -3.0511710608802944e-05
-1.080417983937213e-05   2.2510763419080786e-06   -3.0511710608802944e-05
3.791196713615593e-06   0.0   -5.719802604028675e-05
3.791196713615593e-06   0.0   -5.719802604028675e-05
3.791196713615593e-06   0.0   -5.719802604028675e-05
3.791196713615593e-06   0.0   -5.719802604028675e-05
3.955856125895639e-05   -4.6398075445205325e-06   -3.696363247641574e-07
3.955856125895639e-05   -4.6398075445205325e-06   -3.696363247641574e-07
3.955856125895639e-05   -4.6398075445205325e-06   -3.696363247641574e-07
3.955856125895639e-05   -4.6398075445205325e-06   -3.696363247641574e-07
3.9626477783453293e-05   0.0   -6.030164446849262e-05
3.9626477783453293e-05   0.0   -6.030164446849262e-05
3.9626477783453293e-05   0.0   -6.030164446849262e-05
3.9626477783453293e-05   0.0   -6.030164446849262e-05
4.500907538904764e-06   -3.4982094311908e-06   3.3989826446938116e-07
4.500907538904764e-06   -3.4982094311908e-06   3.3989826446938116e-07
4.500907538904764e-06   -3.4982094311908e-06   3.3989826446938116e-07
4.500907538904764e-06   -3.4982094311908e-06   3.3989826446938116e-07
2.1708837248534445e-05   -2.5863486901715635e-06   -2.888710102952492e-05
2.1708837248534445e-05   -2.5863486901715635e-06   -2.888710102952492e-05
2.1708837248534445e-05   -2.5863486901715635e-06   -2.888710102952492e-05
2.1708837248534445e-05   -2.5863486901715635e-06   -2.888710102952492e-05
4.500907538904771e-06   0.0   -5.820271880977815e-05
4.500907538904771e-06   0.0   -5.820271880977815e-05
4.500907538904771e-06   0.0   -5.820271880977815e-05
4.500907538904771e-06   0.0   -5.820271880977815e-05
3.9626477783453226e-05   -3.4982094311908e-06   -1.759027394245097e-06
3.9626477783453226e-05   -3.4982094311908e-06   -1.759027394245097e-06
3.9626477783453226e-05   -3.4982094311908e-06   -1.759027394245097e-06
3.9626477783453226e-05   -3.4982094311908e-06   -1.759027394245097e-06
3.945467328914819e-05   0.0   -5.94405423785275e-05
3.945467328914819e-05   0.0   -5.94405423785275e-05
3.945467328914819e-05   0.0   -5.94405423785275e-05
3.945467328914819e-05   0.0   -5.94405423785275e-05
5.060864738226948e-06   -2.2016333898926873e-06   -7.965480930565079e-07
5.060864738226948e-06   -2.2016333898926873e-06   -7.965480930565079e-07
5.060864738226948e-06   -2.2016333898926873e-06   -7.965480930565079e-07
5.060864738226948e-06   -2.2016333898926873e-06   -7.965480930565079e-07
2.197779041402648e-05   -1.031519640624466e-06   -2.969349246894996e-05
2.197779041402648e-05   -1.031519640624466e-06   -2.969349246894996e-05
2.197779041402648e-05   -1.031519640624466e-06   -2.969349246894996e-05
2.197779041402648e-05   -1.031519640624466e-06   -2.969349246894996e-05
5.060864738226948e-06   0.0   -5.8119562344591896e-05
5.060864738226948e-06   0.0   -5.8119562344591896e-05
5.060864738226948e-06   0.0   -5.8119562344591896e-05
5.060864738226948e-06   0.0   -5.8119562344591896e-05
3.945467328914812e-05   -2.20163338989266e-06   -2.117528126992097e-06
3.945467328914812e-05   -2.20163338989266e-06   -2.117528126992097e-06
3.945467328914812e-05   -2.20163338989266e-06   -2.117528126992097e-06
3.945467328914812e-05   -2.20163338989266e-06   -2.117528126992097e-06
4.0216783342155724e-05   0.0   -5.7134834526802e-05
4.0216783342155724e-05   0.0   -5.7134834526802e-05
4.0216783342155724e-05   0.0   -5.7134834526802e-05
4.0216783342155724e-05   0.0   -5.7134834526802e-05
5.8147709564516345e-06   -4.591973279514407e-07   4.773711794756687e-07
5.8147709564516345e-06   -4.591973279514407e-07   4.773711794756687e-07
5.8147709564516345e-06   -4.591973279514407e-07   4.773711794756687e-07
5.8147709564516345e-06   -4.591973279514407e-07   4.773711794756687e-07
2.2638824040191337e-05   8.206065148249109e-07   -2.8330599599089615e-05
2.2638824040191337e-05   8.206065148249109e-07   -2.8330599599089615e-05
2.2638824040191337e-05   8.206065148249109e-07   -2.8330599599089615e-05
2.2638824040191337e-05   8.206065148249109e-07   -2.8330599599089615e-05
3.955856125895652e-05   0.0   -5.9981910566999074e-05
3.955856125895652e-05   0.0   -5.9981910566999074e-05
3.955856125895652e-05   0.0   -5.9981910566999074e-05
3.955856125895652e-05   0.0   -5.9981910566999074e-05
8.929627765713388e-05   -1.1760259147573446e-05   1.585812794141939e-05
8.929627765713388e-05   -1.1760259147573446e-05   1.585812794141939e-05
8.929627765713388e-05   -1.1760259147573446e-05   1.585812794141939e-05
8.929627765713388e-05   -1.1760259147573446e-05   1.585812794141939e-05
8.386046499695576e-05   0.0   -6.630607853842128e-05
8.386046499695576e-05   0.0   -6.630607853842128e-05
8.386046499695576e-05   0.0   -6.630607853842128e-05
8.386046499695576e-05   0.0   -6.630607853842128e-05
3.9626477783453226e-05   -1.0007390116547723e-05   1.342166755401145e-05
3.9626477783453226e-05   -1.0007390116547723e-05   1.342166755401145e-05
3.9626477783453226e-05   -1.0007390116547723e-05   1.342166755401145e-05
3.9626477783453226e-05   -1.0007390116547723e-05   1.342166755401145e-05
6.170951312795614e-05   -5.2701399761851655e-06   -2.6225741437710795e-05
6.170951312795614e-05   -5.2701399761851655e-06   -2.6225741437710795e-05
6.170951312795614e-05   -5.2701399761851655e-06   -2.6225741437710795e-05
6.170951312795614e-05   -5.2701399761851655e-06   -2.6225741437710795e-05
3.962647778345326e-05   0.0   -6.0301644468492574e-05
3.962647778345326e-05   0.0   -6.0301644468492574e-05
3.962647778345326e-05   0.0   -6.0301644468492574e-05
3.962647778345326e-05   0.0   -6.0301644468492574e-05
8.386046499695576e-05   -1.0007390116547737e-05   7.41723348408283e-06
8.386046499695576e-05   -1.0007390116547737e-05   7.41723348408283e-06
8.386046499695576e-05   -1.0007390116547737e-05   7.41723348408283e-06
8.386046499695576e-05   -1.0007390116547737e-05   7.41723348408283e-06
8.13528503823749e-05   0.0   -6.492751596793454e-05
8.13528503823749e-05   0.0   -6.492751596793454e-05
8.13528503823749e-05   0.0   -6.492751596793454e-05
8.13528503823749e-05   0.0   -6.492751596793454e-05
3.945467328914812e-05   -9.144955982345063e-06   1.038975277685032e-05
3.945467328914812e-05   -9.144955982345063e-06   1.038975277685032e-05
3.945467328914812e-05   -9.144955982345063e-06   1.038975277685032e-05
3.945467328914812e-05   -9.144955982345063e-06   1.038975277685032e-05
6.048966408291406e-05   -3.854892916201604e-06   -2.7842603052445527e-05
6.048966408291406e-05   -3.854892916201604e-06   -2.7842603052445527e-05
6.048966408291406e-05   -3.854892916201604e-06   -2.7842603052445527e-05
6.048966408291406e-05   -3.854892916201604e-06   -2.7842603052445527e-05
3.945467328914819e-05   0.0   -5.94405423785275e-05
3.945467328914819e-05   0.0   -5.94405423785275e-05
3.945467328914819e-05   0.0   -5.94405423785275e-05
3.945467328914819e-05   0.0   -5.94405423785275e-05
8.135285038237475e-05   -9.144955982345063e-06   4.902779187443288e-06
8.135285038237475e-05   -9.144955982345063e-06   4.902779187443288e-06
8.135285038237475e-05   -9.144955982345063e-06   4.902779187443288e-06
8.135285038237475e-05   -9.144955982345063e-06   4.902779187443288e-06
7.762117838159592e-05   0.0   -6.140034601265423e-05
7.762117838159592e-05   0.0   -6.140034601265423e-05
7.762117838159592e-05   0.0   -6.140034601265423e-05
7.762117838159592e-05   0.0   -6.140034601265423e-05
4.0216783342155616e-05   -7.109185809753694e-06   5.205823872265035e-06
4.0216783342155616e-05   -7.109185809753694e-06   5.205823872265035e-06
4.0216783342155616e-05   -7.109185809753694e-06   5.205823872265035e-06
4.0216783342155616e-05   -7.109185809753694e-06   5.205823872265035e-06
5.853792583537195e-05   -1.6331696951056061e-06   -2.8615023285217677e-05
5.853792583537195e-05   -1.6331696951056061e-06   -2.8615023285217677e-05
5.853792583537195e-05   -1.6331696951056061e-06   -2.8615023285217677e-05
5.853792583537195e-05   -1.6331696951056061e-06   -2.8615023285217677e-05
-8.732498610903799e-05   1.1150327294092246e-05   -5.7285230754086396e-05
-8.732498610903799e-05   1.1150327294092246e-05   -5.7285230754086396e-05
-8.732498610903799e-05   1.1150327294092246e-05   -5.7285230754086396e-05
-8.732498610903799e-05   1.1150327294092246e-05   -5.7285230754086396e-05