<?xml version="1.0"?> 
<VTKFile type="UnstructuredGrid"> 
   <UnstructuredGrid> 
      <Piece NumberOfPoints="6000"  NumberOfCells="1500">  
          <Points>  
             <DataArray type="Float64" NumberOfComponents="3" format="ascii">   
-500.0   0.0   0.0
-450.0   0.0   0.0
-500.0   30.0   0.0
-500.0   0.0   16.666666666666668
-450.0   0.0   0.0
-450.0   30.0   0.0
-500.0   30.0   0.0
-450.0   30.0   16.666666666666668
-500.0   0.0   16.666666666666668
-500.0   30.0   16.666666666666668
-450.0   30.0   16.666666666666668
-500.0   30.0   0.0
-500.0   0.0   16.666666666666668
-450.0   30.0   16.666666666666668
-450.0   0.0   16.666666666666668
-450.0   0.0   0.0
-500.0   0.0   16.666666666666668
-450.0   30.0   16.666666666666668
-450.0   0.0   0.0
-500.0   30.0   0.0
-500.0   0.0   16.666666666666668
-450.0   0.0   16.666666666666668
-500.0   30.0   16.666666666666668
-500.0   0.0   33.333333333333336
-450.0   0.0   16.666666666666668
-450.0   30.0   16.666666666666668
-500.0   30.0   16.666666666666668
-450.0   30.0   33.333333333333336
-500.0   0.0   33.333333333333336
-500.0   30.0   33.333333333333336
-450.0   30.0   33.333333333333336
-500.0   30.0   16.666666666666668
-500.0   0.0   33.333333333333336
-450.0   30.0   33.333333333333336
-450.0   0.0   33.333333333333336
-450.0   0.0   16.666666666666668
-500.0   0.0   33.333333333333336
-450.0   30.0   33.333333333333336
-450.0   0.0   16.666666666666668
-500.0   30.0   16.666666666666668
-500.0   0.0   33.333333333333336
-450.0   0.0   33.333333333333336
-500.0   30.0   33.333333333333336
-500.0   0.0   50.0
-450.0   0.0   33.333333333333336
-450.0   30.0   33.333333333333336
-500.0   30.0   33.333333333333336
-450.0   30.0   50.0
-500.0   0.0   50.0
-500.0   30.0   50.0
-450.0   30.0   50.0
-500.0   30.0   33.333333333333336
-500.0   0.0   50.0
-450.0   30.0   50.0
-450.0   0.0   50.0
-450.0   0.0   33.333333333333336
-500.0   0.0   50.0
-450.0   30.0   50.0
-450.0   0.0   33.333333333333336
-500.0   30.0   33.333333333333336
-500.0   30.0   0.0
-450.0   30.0   0.0
-500.0   60.0   0.0
-500.0   30.0   16.666666666666668
-450.0   30.0   0.0
-450.0   60.0   0.0
-500.0   60.0   0.0
-450.0   60.0   16.666666666666668
-500.0   30.0   16.666666666666668
-500.0   60.0   16.666666666666668
-450.0   60.0   16.666666666666668
-500.0   60.0   0.0
-500.0   30.0   16.666666666666668
-450.0   60.0   16.666666666666668
-450.0   30.0   16.666666666666668
-450.0   30.0   0.0
-500.0   30.0   16.666666666666668
-450.0   60.0   16.666666666666668
-450.0   30.0   0.0
-500.0   60.0   0.0
-500.0   30.0   16.666666666666668
-450.0   30.0   16.666666666666668
-500.0   60.0   16.666666666666668
-500.0   30.0   33.333333333333336
-450.0   30.0   16.666666666666668
-450.0   60.0   16.666666666666668
-500.0   60.0   16.666666666666668
-450.0   60.0   33.333333333333336
-500.0   30.0   33.333333333333336
-500.0   60.0   33.333333333333336
-450.0   60.0   33.333333333333336
-500.0   60.0   16.666666666666668
-500.0   30.0   33.333333333333336
-450.0   60.0   33.333333333333336
-450.0   30.0   33.333333333333336
-450.0   30.0   16.666666666666668
-500.0   30.0   33.333333333333336
-450.0   60.0   33.333333333333336
-450.0   30.0   16.666666666666668
-500.0   60.0   16.666666666666668
-500.0   30.0   33.333333333333336
-450.0   30.0   33.333333333333336
-500.0   60.0   33.333333333333336
-500.0   30.0   50.0
-450.0   30.0   33.333333333333336
-450.0   60.0   33.333333333333336
-500.0   60.0   33.333333333333336
-450.0   60.0   50.0
-500.0   30.0   50.0
-500.0   60.0   50.0
-450.0   60.0   50.0
-500.0   60.0   33.333333333333336
-500.0   30.0   50.0
-450.0   60.0   50.0
-450.0   30.0   50.0
-450.0   30.0   33.333333333333336
-500.0   30.0   50.0
-450.0   60.0   50.0
-450.0   30.0   33.333333333333336
-500.0   60.0   33.333333333333336
-500.0   60.0   0.0
-450.0   60.0   0.0
-500.0   90.0   0.0
-500.0   60.0   16.666666666666668
-450.0   60.0   0.0
-450.0   90.0   0.0
-500.0   90.0   0.0
-450.0   90.0   16.666666666666668
-500.0   60.0   16.666666666666668
-500.0   90.0   16.666666666666668
-450.0   90.0   16.666666666666668
-500.0   90.0   0.0
-500.0   60.0   16.666666666666668
-450.0   90.0   16.666666666666668
-450.0   60.0   16.666666666666668
-450.0   60.0   0.0
-500.0   60.0   16.666666666666668
-450.0   90.0   16.666666666666668
-450.0   60.0   0.0
-500.0   90.0   0.0
-500.0   60.0   16.666666666666668
-450.0   60.0   16.666666666666668
-500.0   90.0   16.666666666666668
-500.0   60.0   33.333333333333336
-450.0   60.0   16.666666666666668
-450.0   90.0   16.666666666666668
-500.0   90.0   16.666666666666668
-450.0   90.0   33.333333333333336
-500.0   60.0   33.333333333333336
-500.0   90.0   33.333333333333336
-450.0   90.0   33.333333333333336
-500.0   90.0   16.666666666666668
-500.0   60.0   33.333333333333336
-450.0   90.0   33.333333333333336
-450.0   60.0   33.333333333333336
-450.0   60.0   16.666666666666668
-500.0   60.0   33.333333333333336
-450.0   90.0   33.333333333333336
-450.0   60.0   16.666666666666668
-500.0   90.0   16.666666666666668
-500.0   60.0   33.333333333333336
-450.0   60.0   33.333333333333336
-500.0   90.0   33.333333333333336
-500.0   60.0   50.0
-450.0   60.0   33.333333333333336
-450.0   90.0   33.333333333333336
-500.0   90.0   33.333333333333336
-450.0   90.0   50.0
-500.0   60.0   50.0
-500.0   90.0   50.0
-450.0   90.0   50.0
-500.0   90.0   33.333333333333336
-500.0   60.0   50.0
-450.0   90.0   50.0
-450.0   60.0   50.0
-450.0   60.0   33.333333333333336
-500.0   60.0   50.0
-450.0   90.0   50.0
-450.0   60.0   33.333333333333336
-500.0   90.0   33.333333333333336
-500.0   90.0   0.0
-450.0   90.0   0.0
-500.0   120.0   0.0
-500.0   90.0   16.666666666666668
-450.0   90.0   0.0
-450.0   120.0   0.0
-500.0   120.0   0.0
-450.0   120.0   16.666666666666668
-500.0   90.0   16.666666666666668
-500.0   120.0   16.666666666666668
-450.0   120.0   16.666666666666668
-500.0   120.0   0.0
-500.0   90.0   16.666666666666668
-450.0   120.0   16.666666666666668
-450.0   90.0   16.666666666666668
-450.0   90.0   0.0
-500.0   90.0   16.666666666666668
-450.0   120.0   16.666666666666668
-450.0   90.0   0.0
-500.0   120.0   0.0
-500.0   90.0   16.666666666666668
-450.0   90.0   16.666666666666668
-500.0   120.0   16.666666666666668
-500.0   90.0   33.333333333333336
-450.0   90.0   16.666666666666668
-450.0   120.0   16.666666666666668
-500.0   120.0   16.666666666666668
-450.0   120.0   33.333333333333336
-500.0   90.0   33.333333333333336
-500.0   120.0   33.333333333333336
-450.0   120.0   33.333333333333336
-500.0   120.0   16.666666666666668
-500.0   90.0   33.333333333333336
-450.0   120.0   33.333333333333336
-450.0   90.0   33.333333333333336
-450.0   90.0   16.666666666666668
-500.0   90.0   33.333333333333336
-450.0   120.0   33.333333333333336
-450.0   90.0   16.666666666666668
-500.0   120.0   16.666666666666668
-500.0   90.0   33.333333333333336
-450.0   90.0   33.333333333333336
-500.0   120.0   33.333333333333336
-500.0   90.0   50.0
-450.0   90.0   33.333333333333336
-450.0   120.0   33.333333333333336
-500.0   120.0   33.333333333333336
-450.0   120.0   50.0
-500.0   90.0   50.0
-500.0   120.0   50.0
-450.0   120.0   50.0
-500.0   120.0   33.333333333333336
-500.0   90.0   50.0
-450.0   120.0   50.0
-450.0   90.0   50.0
-450.0   90.0   33.333333333333336
-500.0   90.0   50.0
-450.0   120.0   50.0
-450.0   90.0   33.333333333333336
-500.0   120.0   33.333333333333336
-500.0   120.0   0.0
-450.0   120.0   0.0
-500.0   150.0   0.0
-500.0   120.0   16.666666666666668
-450.0   120.0   0.0
-450.0   150.0   0.0
-500.0   150.0   0.0
-450.0   150.0   16.666666666666668
-500.0   120.0   16.666666666666668
-500.0   150.0   16.666666666666668
-450.0   150.0   16.666666666666668
-500.0   150.0   0.0
-500.0   120.0   16.666666666666668
-450.0   150.0   16.666666666666668
-450.0   120.0   16.666666666666668
-450.0   120.0   0.0
-500.0   120.0   16.666666666666668
-450.0   150.0   16.666666666666668
-450.0   120.0   0.0
-500.0   150.0   0.0
-500.0   120.0   16.666666666666668
-450.0   120.0   16.666666666666668
-500.0   150.0   16.666666666666668
-500.0   120.0   33.333333333333336
-450.0   120.0   16.666666666666668
-450.0   150.0   16.666666666666668
-500.0   150.0   16.666666666666668
-450.0   150.0   33.333333333333336
-500.0   120.0   33.333333333333336
-500.0   150.0   33.333333333333336
-450.0   150.0   33.333333333333336
-500.0   150.0   16.666666666666668
-500.0   120.0   33.333333333333336
-450.0   150.0   33.333333333333336
-450.0   120.0   33.333333333333336
-450.0   120.0   16.666666666666668
-500.0   120.0   33.333333333333336
-450.0   150.0   33.333333333333336
-450.0   120.0   16.666666666666668
-500.0   150.0   16.666666666666668
-500.0   120.0   33.333333333333336
-450.0   120.0   33.333333333333336
-500.0   150.0   33.333333333333336
-500.0   120.0   50.0
-450.0   120.0   33.333333333333336
-450.0   150.0   33.333333333333336
-500.0   150.0   33.333333333333336
-450.0   150.0   50.0
-500.0   120.0   50.0
-500.0   150.0   50.0
-450.0   150.0   50.0
-500.0   150.0   33.333333333333336
-500.0   120.0   50.0
-450.0   150.0   50.0
-450.0   120.0   50.0
-450.0   120.0   33.333333333333336
-500.0   120.0   50.0
-450.0   150.0   50.0
-450.0   120.0   33.333333333333336
-500.0   150.0   33.333333333333336
-450.0   0.0   0.0
-400.0   0.0   0.0
-450.0   30.0   0.0
-450.0   0.0   16.666666666666668
-400.0   0.0   0.0
-400.0   30.0   0.0
-450.0   30.0   0.0
-400.0   30.0   16.666666666666668
-450.0   0.0   16.666666666666668
-450.0   30.0   16.666666666666668
-400.0   30.0   16.666666666666668
-450.0   30.0   0.0
-450.0   0.0   16.666666666666668
-400.0   30.0   16.666666666666668
-400.0   0.0   16.666666666666668
-400.0   0.0   0.0
-450.0   0.0   16.666666666666668
-400.0   30.0   16.666666666666668
-400.0   0.0   0.0
-450.0   30.0   0.0
-450.0   0.0   16.666666666666668
-400.0   0.0   16.666666666666668
-450.0   30.0   16.666666666666668
[...]
          <PointData>  
             <DataArray type="Float64" NumberOfComponents="3" Name="Strains" format="ascii">   
-6.308032811912532e-05   0.0   -4.148688028665248e-05
-6.308032811912532e-05   0.0   -4.148688028665248e-05
-6.308032811912532e-05   0.0   -4.148688028665248e-05
-6.308032811912532e-05   0.0   -4.148688028665248e-05
-4.013061422964644e-05   6.976526895806142e-06   9.485589999625891e-07
-4.013061422964644e-05   6.976526895806142e-06   9.485589999625891e-07
-4.013061422964644e-05   6.976526895806142e-06   9.485589999625891e-07
-4.013061422964644e-05   6.976526895806142e-06   9.485589999625891e-07
-3.9331111552355854e-05   0.0   -3.916690832648128e-05
-3.9331111552355854e-05   0.0   -3.916690832648128e-05
-3.9331111552355854e-05   0.0   -3.916690832648128e-05
-3.9331111552355854e-05   0.0   -3.916690832648128e-05
-6.600931584814919e-05   8.377704899691682e-06   2.7014256002608986e-07
-6.600931584814919e-05   8.377704899691682e-06   2.7014256002608986e-07
-6.600931584814919e-05   8.377704899691682e-06   2.7014256002608986e-07
-6.600931584814919e-05   8.377704899691682e-06   2.7014256002608986e-07
-5.12057198357405e-05   1.9333099668093304e-06   -2.053588050092561e-05
-5.12057198357405e-05   1.9333099668093304e-06   -2.053588050092561e-05
-5.12057198357405e-05   1.9333099668093304e-06   -2.053588050092561e-05
-5.12057198357405e-05   1.9333099668093304e-06   -2.053588050092561e-05
-6.60093158481493e-05   0.0   -4.4193531266296304e-05
-6.60093158481493e-05   0.0   -4.4193531266296304e-05
-6.60093158481493e-05   0.0   -4.4193531266296304e-05
-6.60093158481493e-05   0.0   -4.4193531266296304e-05
-3.9331111552355854e-05   8.377704899691695e-06   5.296765499841112e-06
-3.9331111552355854e-05   8.377704899691695e-06   5.296765499841112e-06
-3.9331111552355854e-05   8.377704899691695e-06   5.296765499841112e-06
-3.9331111552355854e-05   8.377704899691695e-06   5.296765499841112e-06
-3.9435707561972755e-05   0.0   -4.012387426150183e-05
-3.9435707561972755e-05   0.0   -4.012387426150183e-05
-3.9435707561972755e-05   0.0   -4.012387426150183e-05
-3.9435707561972755e-05   0.0   -4.012387426150183e-05
-6.806341169408941e-05   8.976950608333007e-06   2.202795593692967e-06
-6.806341169408941e-05   8.976950608333007e-06   2.202795593692967e-06
-6.806341169408941e-05   8.976950608333007e-06   2.202795593692967e-06
-6.806341169408941e-05   8.976950608333007e-06   2.202795593692967e-06
-5.2722511705060934e-05   3.3913808373287226e-06   -2.0014029192085237e-05
-5.2722511705060934e-05   3.3913808373287226e-06   -2.0014029192085237e-05
-5.2722511705060934e-05   3.3913808373287226e-06   -2.0014029192085237e-05
-5.2722511705060934e-05   3.3913808373287226e-06   -2.0014029192085237e-05
-6.806341169408953e-05   0.0   -4.551004462650165e-05
-6.806341169408953e-05   0.0   -4.551004462650165e-05
-6.806341169408953e-05   0.0   -4.551004462650165e-05
-6.806341169408953e-05   0.0   -4.551004462650165e-05
-3.943570756197269e-05   8.976950608333007e-06   7.5889659586927765e-06
-3.943570756197269e-05   8.976950608333007e-06   7.5889659586927765e-06
-3.943570756197269e-05   8.976950608333007e-06   7.5889659586927765e-06
-3.943570756197269e-05   8.976950608333007e-06   7.5889659586927765e-06
-3.940784959683558e-05   0.0   -4.0370773676897275e-05
-3.940784959683558e-05   0.0   -4.0370773676897275e-05
-3.940784959683558e-05   0.0   -4.0370773676897275e-05
-3.940784959683558e-05   0.0   -4.0370773676897275e-05
-7.24947765933072e-05   1.0231278383703992e-05   8.635337620333208e-06
-7.24947765933072e-05   1.0231278383703992e-05   8.635337620333208e-06
-7.24947765933072e-05   1.0231278383703992e-05   8.635337620333208e-06
-7.24947765933072e-05   1.0231278383703992e-05   8.635337620333208e-06
-5.373563064546246e-05   4.282725791336981e-06   -1.9060774070654448e-05
-5.373563064546246e-05   4.282725791336981e-06   -1.9060774070654448e-05
-5.373563064546246e-05   4.282725791336981e-06   -1.9060774070654448e-05
-5.373563064546246e-05   4.282725791336981e-06   -1.9060774070654448e-05
-4.0130614229646505e-05   0.0   -3.730096414916879e-05
-4.0130614229646505e-05   0.0   -3.730096414916879e-05
-4.0130614229646505e-05   0.0   -3.730096414916879e-05
-4.0130614229646505e-05   0.0   -3.730096414916879e-05
-1.8283012766766052e-05   2.5564845813158026e-06   6.455957044214276e-07
-1.8283012766766052e-05   2.5564845813158026e-06   6.455957044214276e-07
-1.8283012766766052e-05   2.5564845813158026e-06   6.455957044214276e-07
-1.8283012766766052e-05   2.5564845813158026e-06   6.455957044214276e-07
-1.757817874441451e-05   0.0   -3.6980837393196934e-05
-1.757817874441451e-05   0.0   -3.6980837393196934e-05
-1.757817874441451e-05   0.0   -3.6980837393196934e-05
-1.757817874441451e-05   0.0   -3.6980837393196934e-05
-3.9331111552355854e-05   3.643451555473818e-06   -2.912020313245757e-06
-3.9331111552355854e-05   3.643451555473818e-06   -2.912020313245757e-06
-3.9331111552355854e-05   3.643451555473818e-06   -2.912020313245757e-06
-3.9331111552355854e-05   3.643451555473818e-06   -2.912020313245757e-06
-2.8854396487030475e-05   2.6677229664316145e-07   -1.8347204533489547e-05
-2.8854396487030475e-05   2.6677229664316145e-07   -1.8347204533489547e-05
-2.8854396487030475e-05   2.6677229664316145e-07   -1.8347204533489547e-05
-2.8854396487030475e-05   2.6677229664316145e-07   -1.8347204533489547e-05
-3.933111155235582e-05   0.0   -3.916690832648125e-05
-3.933111155235582e-05   0.0   -3.916690832648125e-05
-3.933111155235582e-05   0.0   -3.916690832648125e-05
-3.933111155235582e-05   0.0   -3.916690832648125e-05
-1.757817874441451e-05   3.6434515554738045e-06   -7.25949379961477e-07
-1.757817874441451e-05   3.6434515554738045e-06   -7.25949379961477e-07
-1.757817874441451e-05   3.6434515554738045e-06   -7.25949379961477e-07
-1.757817874441451e-05   3.6434515554738045e-06   -7.25949379961477e-07
-1.717973688379189e-05   0.0   -3.7443738716746425e-05
-1.717973688379189e-05   0.0   -3.7443738716746425e-05
-1.717973688379189e-05   0.0   -3.7443738716746425e-05
-1.717973688379189e-05   0.0   -3.7443738716746425e-05
-3.9435707561972755e-05   4.466892574592248e-06   -3.0305897978671106e-06
-3.9435707561972755e-05   4.466892574592248e-06   -3.0305897978671106e-06
-3.9435707561972755e-05   4.466892574592248e-06   -3.0305897978671106e-06
-3.9435707561972755e-05   4.466892574592248e-06   -3.0305897978671106e-06
-2.825542421807383e-05   1.4359746747789922e-06   -1.984584463114387e-05
-2.825542421807383e-05   1.4359746747789922e-06   -1.984584463114387e-05
-2.825542421807383e-05   1.4359746747789922e-06   -1.984584463114387e-05
-2.825542421807383e-05   1.4359746747789922e-06   -1.984584463114387e-05
-3.9435707561972755e-05   0.0   -4.012387426150183e-05
-3.9435707561972755e-05   0.0   -4.012387426150183e-05
-3.9435707561972755e-05   0.0   -4.012387426150183e-05
-3.9435707561972755e-05   0.0   -4.012387426150183e-05
-1.717973688379192e-05   4.466892574592248e-06   -3.5045425311176456e-07
-1.717973688379192e-05   4.466892574592248e-06   -3.5045425311176456e-07
-1.717973688379192e-05   4.466892574592248e-06   -3.5045425311176456e-07
-1.717973688379192e-05   4.466892574592248e-06   -3.5045425311176456e-07
-1.681587955809879e-05   0.0   -3.725122304629201e-05
-1.681587955809879e-05   0.0   -3.725122304629201e-05
-1.681587955809879e-05   0.0   -3.725122304629201e-05
-1.681587955809879e-05   0.0   -3.725122304629201e-05
-3.9407849596835474e-05   5.199251051008706e-06   -2.717490279002612e-06
-3.9407849596835474e-05   5.199251051008706e-06   -2.717490279002612e-06
-3.9407849596835474e-05   5.199251051008706e-06   -2.717490279002612e-06
-3.9407849596835474e-05   5.199251051008706e-06   -2.717490279002612e-06
-2.8125793560035764e-05   2.39387601267483e-06   -1.983769198400195e-05
-2.8125793560035764e-05   2.39387601267483e-06   -1.983769198400195e-05
-2.8125793560035764e-05   2.39387601267483e-06   -1.983769198400195e-05
-2.8125793560035764e-05   2.39387601267483e-06   -1.983769198400195e-05
-1.8283012766766083e-05   0.0   -3.576707340037931e-05
-1.8283012766766083e-05   0.0   -3.576707340037931e-05
-1.8283012766766083e-05   0.0   -3.576707340037931e-05
-1.8283012766766083e-05   0.0   -3.576707340037931e-05
2.35346113412165e-06   -3.29202518559529e-07   -1.5704717433687712e-06
2.35346113412165e-06   -3.29202518559529e-07   -1.5704717433687712e-06
2.35346113412165e-06   -3.29202518559529e-07   -1.5704717433687712e-06
2.35346113412165e-06   -3.29202518559529e-07   -1.5704717433687712e-06
2.8062873733710783e-06   0.0   -3.659283592382794e-05
2.8062873733710783e-06   0.0   -3.659283592382794e-05
2.8062873733710783e-06   0.0   -3.659283592382794e-05
2.8062873733710783e-06   0.0   -3.659283592382794e-05
-1.757817874441451e-05   6.466691156148849e-07   -3.0067271968876112e-06
-1.757817874441451e-05   6.466691156148849e-07   -3.0067271968876112e-06
-1.757817874441451e-05   6.466691156148849e-07   -3.0067271968876112e-06
-1.757817874441451e-05   6.466691156148849e-07   -3.0067271968876112e-06
-7.738362696697484e-06   -6.88135436207294e-07   -1.8605537878656e-05
-7.738362696697484e-06   -6.88135436207294e-07   -1.8605537878656e-05
-7.738362696697484e-06   -6.88135436207294e-07   -1.8605537878656e-05
-7.738362696697484e-06   -6.88135436207294e-07   -1.8605537878656e-05
-1.757817874441454e-05   0.0   -3.6980837393196995e-05
-1.757817874441454e-05   0.0   -3.6980837393196995e-05
-1.757817874441454e-05   0.0   -3.6980837393196995e-05
-1.757817874441454e-05   0.0   -3.6980837393196995e-05
2.8062873733710834e-06   6.466691156148849e-07   -2.6187257275186796e-06
2.8062873733710834e-06   6.466691156148849e-07   -2.6187257275186796e-06
2.8062873733710834e-06   6.466691156148849e-07   -2.6187257275186796e-06
2.8062873733710834e-06   6.466691156148849e-07   -2.6187257275186796e-06
3.1645225062734757e-06   0.0   -3.653999865922623e-05
3.1645225062734757e-06   0.0   -3.653999865922623e-05
3.1645225062734757e-06   0.0   -3.653999865922623e-05
3.1645225062734757e-06   0.0   -3.653999865922623e-05
-1.7179736883791862e-05   1.5062334292003285e-06   -3.5366397333041435e-06
-1.7179736883791862e-05   1.5062334292003285e-06   -3.5366397333041435e-06
-1.7179736883791862e-05   1.5062334292003285e-06   -3.5366397333041435e-06
-1.7179736883791862e-05   1.5062334292003285e-06   -3.5366397333041435e-06
-7.2068281190705166e-06   3.673656116422576e-07   -1.9474833650638244e-05
-7.2068281190705166e-06   3.673656116422576e-07   -1.9474833650638244e-05
-7.2068281190705166e-06   3.673656116422576e-07   -1.9474833650638244e-05
-7.2068281190705166e-06   3.673656116422576e-07   -1.9474833650638244e-05
-1.717973688379192e-05   0.0   -3.7443738716746486e-05
-1.717973688379192e-05   0.0   -3.7443738716746486e-05
-1.717973688379192e-05   0.0   -3.7443738716746486e-05
-1.717973688379192e-05   0.0   -3.7443738716746486e-05
3.164522506273481e-06   1.5062334292003285e-06   -2.63289967578396e-06
3.164522506273481e-06   1.5062334292003285e-06   -2.63289967578396e-06
3.164522506273481e-06   1.5062334292003285e-06   -2.63289967578396e-06
3.164522506273481e-06   1.5062334292003285e-06   -2.63289967578396e-06
3.6444300714149074e-06   0.0   -3.575035188804249e-05
3.6444300714149074e-06   0.0   -3.575035188804249e-05
3.6444300714149074e-06   0.0   -3.575035188804249e-05
3.6444300714149074e-06   0.0   -3.575035188804249e-05
-1.6815879558098772e-05   2.5014519304158216e-06   -3.150706997102513e-06
-1.6815879558098772e-05   2.5014519304158216e-06   -3.150706997102513e-06
-1.6815879558098772e-05   2.5014519304158216e-06   -3.150706997102513e-06
-1.6815879558098772e-05   2.5014519304158216e-06   -3.150706997102513e-06
-6.767653406188491e-06   1.411155690586617e-06   -1.924357283972211e-05
-6.767653406188491e-06   1.411155690586617e-06   -1.924357283972211e-05
-6.767653406188491e-06   1.411155690586617e-06   -1.924357283972211e-05
-6.767653406188491e-06   1.411155690586617e-06   -1.924357283972211e-05
2.353461134121654e-06   0.0   -3.5964594911515026e-05
2.353461134121654e-06   0.0   -3.5964594911515026e-05
2.353461134121654e-06   0.0   -3.5964594911515026e-05
2.353461134121654e-06   0.0   -3.5964594911515026e-05
2.4759422192736e-05   -2.904060653176869e-06   -3.6376287239708546e-07
2.4759422192736e-05   -2.904060653176869e-06   -3.6376287239708546e-07
2.4759422192736e-05   -2.904060653176869e-06   -3.6376287239708546e-07
2.4759422192736e-05   -2.904060653176869e-06   -3.6376287239708546e-07
2.4811015237055846e-05   0.0   -3.790533273574719e-05
2.4811015237055846e-05   0.0   -3.790533273574719e-05
2.4811015237055846e-05   0.0   -3.790533273574719e-05
2.4811015237055846e-05   0.0   -3.790533273574719e-05
2.8062873733710834e-06   -2.1874946865318683e-06   8.171051564652725e-08
2.8062873733710834e-06   -2.1874946865318683e-06   8.171051564652725e-08
2.8062873733710834e-06   -2.1874946865318683e-06   8.171051564652725e-08
2.8062873733710834e-06   -2.1874946865318683e-06   8.171051564652725e-08
1.358223818558875e-05   -1.6172815201934636e-06   -1.822033540451927e-05
1.358223818558875e-05   -1.6172815201934636e-06   -1.822033540451927e-05
1.358223818558875e-05   -1.6172815201934636e-06   -1.822033540451927e-05
1.358223818558875e-05   -1.6172815201934636e-06   -1.822033540451927e-05
2.806287373371088e-06   0.0   -3.659283592382807e-05
2.806287373371088e-06   0.0   -3.659283592382807e-05
2.806287373371088e-06   0.0   -3.659283592382807e-05
2.806287373371088e-06   0.0   -3.659283592382807e-05
2.4811015237055802e-05   -2.1874946865318683e-06   -1.2307862962725993e-06
2.4811015237055802e-05   -2.1874946865318683e-06   -1.2307862962725993e-06
2.4811015237055802e-05   -2.1874946865318683e-06   -1.2307862962725993e-06
2.4811015237055802e-05   -2.1874946865318683e-06   -1.2307862962725993e-06
2.4711274031640798e-05   0.0   -3.7364113104421516e-05
2.4711274031640798e-05   0.0   -3.7364113104421516e-05
2.4711274031640798e-05   0.0   -3.7364113104421516e-05
2.4711274031640798e-05   0.0   -3.7364113104421516e-05
3.164522506273481e-06   -1.3735240753253816e-06   -6.287461169474313e-07
3.164522506273481e-06   -1.3735240753253816e-06   -6.287461169474313e-07
3.164522506273481e-06   -1.3735240753253816e-06   -6.287461169474313e-07
3.164522506273481e-06   -1.3735240753253816e-06   -6.287461169474313e-07
1.3758780702505943e-05   -6.42730983827879e-07   -1.8724318965566686e-05
1.3758780702505943e-05   -6.42730983827879e-07   -1.8724318965566686e-05
1.3758780702505943e-05   -6.42730983827879e-07   -1.8724318965566686e-05
1.3758780702505943e-05   -6.42730983827879e-07   -1.8724318965566686e-05
3.164522506273481e-06   0.0   -3.653999865922629e-05
3.164522506273481e-06   0.0   -3.653999865922629e-05
3.164522506273481e-06   0.0   -3.653999865922629e-05
3.164522506273481e-06   0.0   -3.653999865922629e-05
2.4711274031640757e-05   -1.3735240753253748e-06   -1.4528605621426496e-06
2.4711274031640757e-05   -1.3735240753253748e-06   -1.4528605621426496e-06
2.4711274031640757e-05   -1.3735240753253748e-06   -1.4528605621426496e-06
2.4711274031640757e-05   -1.3735240753253748e-06   -1.4528605621426496e-06
2.519612265091282e-05   0.0   -3.591842789839885e-05
2.519612265091282e-05   0.0   -3.591842789839885e-05
2.519612265091282e-05   0.0   -3.591842789839885e-05
2.519612265091282e-05   0.0   -3.591842789839885e-05
3.6444300714149137e-06   -2.801266839271669e-07   1.691357444539536e-07
3.6444300714149137e-06   -2.801266839271669e-07   1.691357444539536e-07
3.6444300714149137e-06   -2.801266839271669e-07   1.691357444539536e-07
3.6444300714149137e-06   -2.801266839271669e-07   1.691357444539536e-07
1.418032257859315e-05   5.179756340228693e-07   -1.7869546491613106e-05
1.418032257859315e-05   5.179756340228693e-07   -1.7869546491613106e-05
1.418032257859315e-05   5.179756340228693e-07   -1.7869546491613106e-05
1.418032257859315e-05   5.179756340228693e-07   -1.7869546491613106e-05
2.4759422192736085e-05   0.0   -3.7707031303421156e-05
2.4759422192736085e-05   0.0   -3.7707031303421156e-05
2.4759422192736085e-05   0.0   -3.7707031303421156e-05
2.4759422192736085e-05   0.0   -3.7707031303421156e-05
5.5937938876339185e-05   -7.366870710387902e-06   9.837040743018111e-06
5.5937938876339185e-05   -7.366870710387902e-06   9.837040743018111e-06
5.5937938876339185e-05   -7.366870710387902e-06   9.837040743018111e-06
5.5937938876339185e-05   -7.366870710387902e-06   9.837040743018111e-06
5.2544580286262574e-05   0.0   -4.1663755663201606e-05
5.2544580286262574e-05   0.0   -4.1663755663201606e-05
5.2544580286262574e-05   0.0   -4.1663755663201606e-05
5.2544580286262574e-05   0.0   -4.1663755663201606e-05
2.4811015237055802e-05   -6.264038212424022e-06   8.317275679597343e-06
2.4811015237055802e-05   -6.264038212424022e-06   8.317275679597343e-06
2.4811015237055802e-05   -6.264038212424022e-06   8.317275679597343e-06
2.4811015237055802e-05   -6.264038212424022e-06   8.317275679597343e-06
3.865200123949933e-05   -3.29727029981704e-06   -1.6531095072039293e-05
3.865200123949933e-05   -3.29727029981704e-06   -1.6531095072039293e-05
3.865200123949933e-05   -3.29727029981704e-06   -1.6531095072039293e-05
3.865200123949933e-05   -3.29727029981704e-06   -1.6531095072039293e-05
2.4811015237055822e-05   0.0   -3.7905332735747155e-05
2.4811015237055822e-05   0.0   -3.7905332735747155e-05
2.4811015237055822e-05   0.0   -3.7905332735747155e-05
2.4811015237055822e-05   0.0   -3.7905332735747155e-05
5.2544580286262574e-05   -6.2640382124240355e-06   4.558852752142926e-06
5.2544580286262574e-05   -6.2640382124240355e-06   4.558852752142926e-06
5.2544580286262574e-05   -6.2640382124240355e-06   4.558852752142926e-06
5.2544580286262574e-05   -6.2640382124240355e-06   4.558852752142926e-06
5.098271232648067e-05   0.0   -4.0797614862809555e-05
5.098271232648067e-05   0.0   -4.0797614862809555e-05
5.098271232648067e-05   0.0   -4.0797614862809555e-05
5.098271232648067e-05   0.0   -4.0797614862809555e-05
2.4711274031640757e-05   -5.722502930646724e-06   6.4216173869782636e-06
2.4711274031640757e-05   -5.722502930646724e-06   6.4216173869782636e-06
2.4711274031640757e-05   -5.722502930646724e-06   6.4216173869782636e-06
2.4711274031640757e-05   -5.722502930646724e-06   6.4216173869782636e-06
3.789686378176824e-05   -2.4102351058853137e-06   -1.7541726224757648e-05
3.789686378176824e-05   -2.4102351058853137e-06   -1.7541726224757648e-05
3.789686378176824e-05   -2.4102351058853137e-06   -1.7541726224757648e-05
3.789686378176824e-05   -2.4102351058853137e-06   -1.7541726224757648e-05
2.4711274031640798e-05   0.0   -3.7364113104421516e-05
2.4711274031640798e-05   0.0   -3.7364113104421516e-05
2.4711274031640798e-05   0.0   -3.7364113104421516e-05
2.4711274031640798e-05   0.0   -3.7364113104421516e-05
5.0982712326480584e-05   -5.722502930646724e-06   2.9881156285902182e-06
5.0982712326480584e-05   -5.722502930646724e-06   2.9881156285902182e-06
5.0982712326480584e-05   -5.722502930646724e-06   2.9881156285902182e-06
5.0982712326480584e-05   -5.722502930646724e-06   2.9881156285902182e-06
4.865297260384795e-05   0.0   -3.858420972337447e-05
4.865297260384795e-05   0.0   -3.858420972337447e-05
4.865297260384795e-05   0.0   -3.858420972337447e-05
4.865297260384795e-05   0.0   -3.858420972337447e-05
2.5196122650912756e-05   -4.442969708292704e-06   3.1763220231597364e-06
2.5196122650912756e-05   -4.442969708292704e-06   3.1763220231597364e-06
2.5196122650912756e-05   -4.442969708292704e-06   3.1763220231597364e-06
2.5196122650912756e-05   -4.442969708292704e-06   3.1763220231597364e-06
3.6682123317744314e-05   -1.0167471824607988e-06   -1.802274593705865e-05
3.6682123317744314e-05   -1.0167471824607988e-06   -1.802274593705865e-05
3.6682123317744314e-05   -1.0167471824607988e-06   -1.802274593705865e-05
3.6682123317744314e-05   -1.0167471824607988e-06   -1.802274593705865e-05
-5.466663259667149e-05   6.976526895806115e-06   -3.592633094148686e-05
-5.466663259667149e-05   6.976526895806115e-06   -3.592633094148686e-05
-5.466663259667149e-05   6.976526895806115e-06   -3.592633094148686e-05