<?xml version="1.0"?> 
<VTKFile type="UnstructuredGrid"> 
   <UnstructuredGrid> 
      <Piece NumberOfPoints="6000"  NumberOfCells="1500">  
          <Points>  
             <DataArray type="Float64" NumberOfComponents="3" format="ascii">   
-500.0   0.0   0.0
-450.0   0.0   0.0
-500.0   30.0   0.0
-500.0   0.0   16.666666666666668
-450.0   0.0   0.0
-450.0   30.0   0.0
-500.0   30.0   0.0
-450.0   30.0   16.666666666666668
-500.0   0.0   16.666666666666668
-500.0   30.0   16.666666666666668
-450.0   30.0   16.666666666666668
-500.0   30.0   0.0
-500.0   0.0   16.666666666666668
-450.0   30.0   16.666666666666668
-450.0   0.0   16.666666666666668
-450.0   0.0   0.0
-500.0   0.0   16.666666666666668
-450.0   30.0   16.666666666666668
-450.0   0.0   0.0
-500.0   30.0   0.0
-500.0   0.0   16.666666666666668
-450.0   0.0   16.666666666666668
-500.0   30.0   16.666666666666668
-500.0   0.0   33.333333333333336
-450.0   0.0   16.666666666666668
-450.0   30.0   16.666666666666668
-500.0   30.0   16.666666666666668
-450.0   30.0   33.333333333333336
-500.0   0.0   33.333333333333336
-500.0   30.0   33.333333333333336
-450.0   30.0   33.333333333333336
-500.0   30.0   16.666666666666668
-500.0   0.0   33.333333333333336
-450.0   30.0   33.333333333333336
-450.0   0.0   33.333333333333336
-450.0   0.0   16.666666666666668
-500.0   0.0   33.333333333333336
-450.0   30.0   33.333333333333336
-450.0   0.0   16.666666666666668
-500.0   30.0   16.666666666666668
-500.0   0.0   33.333333333333336
-450.0   0.0   33.333333333333336
-500.0   30.0   33.333333333333336
-500.0   0.0   50.0
-450.0   0.0   33.333333333333336
-450.0   30.0   33.333333333333336
-500.0   30.0   33.333333333333336
-450.0   30.0   50.0
-500.0   0.0   50.0
-500.0   30.0   50.0
-450.0   30.0   50.0
-500.0   30.0   33.333333333333336
-500.0   0.0   50.0
-450.0   30.0   50.0
-450.0   0.0   50.0
-450.0   0.0   33.333333333333336
-500.0   0.0   50.0
-450.0   30.0   50.0
-450.0   0.0   33.333333333333336
-500.0   30.0   33.333333333333336
-500.0   30.0   0.0
-450.0   30.0   0.0
-500.0   60.0   0.0
-500.0   30.0   16.666666666666668
-450.0   30.0   0.0
-450.0   60.0   0.0
-500.0   60.0   0.0
-450.0   60.0   16.666666666666668
-500.0   30.0   16.666666666666668
-500.0   60.0   16.666666666666668
-450.0   60.0   16.666666666666668
-500.0   60.0   0.0
-500.0   30.0   16.666666666666668
-450.0   60.0   16.666666666666668
-450.0   30.0   16.666666666666668
-450.0   30.0   0.0
-500.0   30.0   16.666666666666668
-450.0   60.0   16.666666666666668
-450.0   30.0   0.0
-500.0   60.0   0.0
-500.0   30.0   16.666666666666668
-450.0   30.0   16.666666666666668
-500.0   60.0   16.666666666666668
-500.0   30.0   33.333333333333336
-450.0   30.0   16.666666666666668
-450.0   60.0   16.666666666666668
-500.0   60.0   16.666666666666668
-450.0   60.0   33.333333333333336
-500.0   30.0   33.333333333333336
-500.0   60.0   33.333333333333336
-450.0   60.0   33.333333333333336
-500.0   60.0   16.666666666666668
-500.0   30.0   33.333333333333336
-450.0   60.0   33.333333333333336
-450.0   30.0   33.333333333333336
-450.0   30.0   16.666666666666668
-500.0   30.0   33.333333333333336
-450.0   60.0   33.333333333333336
-450.0   30.0   16.666666666666668
-500.0   60.0   16.666666666666668
-500.0   30.0   33.333333333333336
-450.0   30.0   33.333333333333336
-500.0   60.0   33.333333333333336
-500.0   30.0   50.0
-450.0   30.0   33.333333333333336
-450.0   60.0   33.333333333333336
-500.0   60.0   33.333333333333336
-450.0   60.0   50.0
-500.0   30.0   50.0
-500.0   60.0   50.0
-450.0   60.0   50.0
-500.0   60.0   33.333333333333336
-500.0   30.0   50.0
-450.0   60.0   50.0
-450.0   30.0   50.0
-450.0   30.0   33.333333333333336
-500.0   30.0   50.0
-450.0   60.0   50.0
-450.0   30.0   33.333333333333336
-500.0   60.0   33.333333333333336
-500.0   60.0   0.0
-450.0   60.0   0.0
-500.0   90.0   0.0
-500.0   60.0   16.666666666666668
-450.0   60.0   0.0
-450.0   90.0   0.0
-500.0   90.0   0.0
-450.0   90.0   16.666666666666668
-500.0   60.0   16.666666666666668
-500.0   90.0   16.666666666666668
-450.0   90.0   16.666666666666668
-500.0   90.0   0.0
-500.0   60.0   16.666666666666668
-450.0   90.0   16.666666666666668
-450.0   60.0   16.666666666666668
-450.0   60.0   0.0
-500.0   60.0   16.666666666666668
-450.0   90.0   16.666666666666668
-450.0   60.0   0.0
-500.0   90.0   0.0
-500.0   60.0   16.666666666666668
-450.0   60.0   16.666666666666668
-500.0   90.0   16.666666666666668
-500.0   60.0   33.333333333333336
-450.0   60.0   16.666666666666668
-450.0   90.0   16.666666666666668
-500.0   90.0   16.666666666666668
-450.0   90.0   33.333333333333336
-500.0   60.0   33.333333333333336
-500.0   90.0   33.333333333333336
-450.0   90.0   33.333333333333336
-500.0   90.0   16.666666666666668
-500.0   60.0   33.333333333333336
-450.0   90.0   33.333333333333336
-450.0   60.0   33.333333333333336
-450.0   60.0   16.666666666666668
-500.0   60.0   33.333333333333336
-450.0   90.0   33.333333333333336
-450.0   60.0   16.666666666666668
-500.0   90.0   16.666666666666668
-500.0   60.0   33.333333333333336
-450.0   60.0   33.333333333333336
-500.0   90.0   33.333333333333336
-500.0   60.0   50.0
-450.0   60.0   33.333333333333336
-450.0   90.0   33.333333333333336
-500.0   90.0   33.333333333333336
-450.0   90.0   50.0
-500.0   60.0   50.0
-500.0   90.0   50.0
-450.0   90.0   50.0
-500.0   90.0   33.333333333333336
-500.0   60.0   50.0
-450.0   90.0   50.0
-450.0   60.0   50.0
-450.0   60.0   33.333333333333336
-500.0   60.0   50.0
-450.0   90.0   50.0
-450.0   60.0   33.333333333333336
-500.0   90.0   33.333333333333336
-500.0   90.0   0.0
-450.0   90.0   0.0
-500.0   120.0   0.0
-500.0   90.0   16.666666666666668
-450.0   90.0   0.0
-450.0   120.0   0.0
-500.0   120.0   0.0
-450.0   120.0   16.666666666666668
-500.0   90.0   16.666666666666668
-500.0   120.0   16.666666666666668
-450.0   120.0   16.666666666666668
-500.0   120.0   0.0
-500.0   90.0   16.666666666666668
-450.0   120.0   16.666666666666668
-450.0   90.0   16.666666666666668
-450.0   90.0   0.0
-500.0   90.0   16.666666666666668
-450.0   120.0   16.666666666666668
-450.0   90.0   0.0
-500.0   120.0   0.0
-500.0   90.0   16.666666666666668
-450.0   90.0   16.666666666666668
-500.0   120.0   16.666666666666668
-500.0   90.0   33.333333333333336
-450.0   90.0   16.666666666666668
-450.0   120.0   16.666666666666668
-500.0   120.0   16.666666666666668
-450.0   120.0   33.333333333333336
-500.0   90.0   33.333333333333336
-500.0   120.0   33.333333333333336
-450.0   120.0   33.333333333333336
-500.0   120.0   16.666666666666668
-500.0   90.0   33.333333333333336
-450.0   120.0   33.333333333333336
-450.0   90.0   33.333333333333336
-450.0   90.0   16.666666666666668
-500.0   90.0   33.333333333333336
-450.0   120.0   33.333333333333336
-450.0   90.0   16.666666666666668
-500.0   120.0   16.666666666666668
-500.0   90.0   33.333333333333336
-450.0   90.0   33.333333333333336
-500.0   120.0   33.333333333333336
-500.0   90.0   50.0
-450.0   90.0   33.333333333333336
-450.0   120.0   33.333333333333336
-500.0   120.0   33.333333333333336
-450.0   120.0   50.0
-500.0   90.0   50.0
-500.0   120.0   50.0
-450.0   120.0   50.0
-500.0   120.0   33.333333333333336
-500.0   90.0   50.0
-450.0   120.0   50.0
-450.0   90.0   50.0
-450.0   90.0   33.333333333333336
-500.0   90.0   50.0
-450.0   120.0   50.0
-450.0   90.0   33.333333333333336
-500.0   120.0   33.333333333333336
-500.0   120.0   0.0
-450.0   120.0   0.0
-500.0   150.0   0.0
-500.0   120.0   16.666666666666668
-450.0   120.0   0.0
-450.0   150.0   0.0
-500.0   150.0   0.0
-450.0   150.0   16.666666666666668
-500.0   120.0   16.666666666666668
-500.0   150.0   16.666666666666668
-450.0   150.0   16.666666666666668
-500.0   150.0   0.0
-500.0   120.0   16.666666666666668
-450.0   150.0   16.666666666666668
-450.0   120.0   16.666666666666668
-450.0   120.0   0.0
-500.0   120.0   16.666666666666668
-450.0   150.0   16.666666666666668
-450.0   120.0   0.0
-500.0   150.0   0.0
-500.0   120.0   16.666666666666668
-450.0   120.0   16.666666666666668
-500.0   150.0   16.666666666666668
-500.0   120.0   33.333333333333336
-450.0   120.0   16.666666666666668
-450.0   150.0   16.666666666666668
-500.0   150.0   16.666666666666668
-450.0   150.0   33.333333333333336
-500.0   120.0   33.333333333333336
-500.0   150.0   33.333333333333336
-450.0   150.0   33.333333333333336
-500.0   150.0   16.666666666666668
-500.0   120.0   33.333333333333336
-450.0   150.0   33.333333333333336
-450.0   120.0   33.333333333333336
-450.0   120.0   16.666666666666668
-500.0   120.0   33.333333333333336
-450.0   150.0   33.333333333333336
-450.0   120.0   16.666666666666668
-500.0   150.0   16.666666666666668
-500.0   120.0   33.333333333333336
-450.0   120.0   33.333333333333336
-500.0   150.0   33.333333333333336
-500.0   120.0   50.0
-450.0   120.0   33.333333333333336
-450.0   150.0   33.333333333333336
-500.0   150.0   33.333333333333336
-450.0   150.0   50.0
-500.0   120.0   50.0
-500.0   150.0   50.0
-450.0   150.0   50.0
-500.0   150.0   33.333333333333336
-500.0   120.0   50.0
-450.0   150.0   50.0
-450.0   120.0   50.0
-450.0   120.0   33.333333333333336
-500.0   120.0   50.0
-450.0   150.0   50.0
-450.0   120.0   33.333333333333336
-500.0   150.0   33.333333333333336
-450.0   0.0   0.0
-400.0   0.0   0.0
-450.0   30.0   0.0
-450.0   0.0   16.666666666666668
-400.0   0.0   0.0
-400.0   30.0   0.0
-450.0   30.0   0.0
-400.0   30.0   16.666666666666668
-450.0   0.0   16.666666666666668
-450.0   30.0   16.666666666666668
-400.0   30.0   16.666666666666668
-450.0   30.0   0.0
-450.0   0.0   16.666666666666668
-400.0   30.0   16.666666666666668
-400.0   0.0   16.666666666666668
-400.0   0.0   0.0
-450.0   0.0   16.666666666666668
-400.0   30.0   16.666666666666668
-400.0   0.0   0.0
-450.0   30.0   0.0
-450.0   0.0   16.666666666666668
-400.0   0.0   16.666666666666668
-450.0   30.0   16.666666666666668
[...]
          <PointData>  
             <DataArray type="Float64" NumberOfComponents="3" Name="Strains" format="ascii">   
-0.00011314908742652958   0.0   -7.420835994026117e-05
-0.00011314908742652958   0.0   -7.420835994026117e-05
-0.00011314908742652958   0.0   -7.420835994026117e-05
-0.00011314908742652958   0.0   -7.420835994026117e-05
-7.200405950255285e-05   1.2541594093520947e-05   1.8916430558124696e-06
-7.200405950255285e-05   1.2541594093520947e-05   1.8916430558124696e-06
-7.200405950255285e-05   1.2541594093520947e-05   1.8916430558124696e-06
-7.200405950255285e-05   1.2541594093520947e-05   1.8916430558124696e-06
-7.058378904986754e-05   0.0   -7.003125786781019e-05
-7.058378904986754e-05   0.0   -7.003125786781019e-05
-7.058378904986754e-05   0.0   -7.003125786781019e-05
-7.058378904986754e-05   0.0   -7.003125786781019e-05
-0.00011842049591123919   1.5047285845797275e-05   6.682153936645211e-07
-0.00011842049591123919   1.5047285845797275e-05   6.682153936645211e-07
-0.00011842049591123919   1.5047285845797275e-05   6.682153936645211e-07
-0.00011842049591123919   1.5047285845797275e-05   6.682153936645211e-07
-9.18664382381984e-05   3.480918393709152e-06   -3.6648726923483876e-05
-9.18664382381984e-05   3.480918393709152e-06   -3.6648726923483876e-05
-9.18664382381984e-05   3.480918393709152e-06   -3.6648726923483876e-05
-9.18664382381984e-05   3.480918393709152e-06   -3.6648726923483876e-05
-0.0001184204959112394   0.0   -7.905962937528857e-05
-0.0001184204959112394   0.0   -7.905962937528857e-05
-0.0001184204959112394   0.0   -7.905962937528857e-05
-0.0001184204959112394   0.0   -7.905962937528857e-05
-7.058378904986754e-05   1.5047285845797289e-05   9.696586901142889e-06
-7.058378904986754e-05   1.5047285845797289e-05   9.696586901142889e-06
-7.058378904986754e-05   1.5047285845797289e-05   9.696586901142889e-06
-7.058378904986754e-05   1.5047285845797289e-05   9.696586901142889e-06
-7.078688856274057e-05   0.0   -7.174646460614529e-05
-7.078688856274057e-05   0.0   -7.174646460614529e-05
-7.078688856274057e-05   0.0   -7.174646460614529e-05
-7.078688856274057e-05   0.0   -7.174646460614529e-05
-0.0001221244094616771   1.6120008729441542e-05   4.144064987750973e-06
-0.0001221244094616771   1.6120008729441542e-05   4.144064987750973e-06
-0.0001221244094616771   1.6120008729441542e-05   4.144064987750973e-06
-0.0001221244094616771   1.6120008729441542e-05   4.144064987750973e-06
-9.46036922369898e-05   6.094303974286056e-06   -3.5708374200301134e-05
-9.46036922369898e-05   6.094303974286056e-06   -3.5708374200301134e-05
-9.46036922369898e-05   6.094303974286056e-06   -3.5708374200301134e-05
-9.46036922369898e-05   6.094303974286056e-06   -3.5708374200301134e-05
-0.0001221244094616773   0.0   -8.141846984381023e-05
-0.0001221244094616773   0.0   -8.141846984381023e-05
-0.0001221244094616773   0.0   -8.141846984381023e-05
-0.0001221244094616773   0.0   -8.141846984381023e-05
-7.078688856274043e-05   1.6120008729441542e-05   1.38160702254159e-05
-7.078688856274043e-05   1.6120008729441542e-05   1.38160702254159e-05
-7.078688856274043e-05   1.6120008729441542e-05   1.38160702254159e-05
-7.078688856274043e-05   1.6120008729441542e-05   1.38160702254159e-05
-7.075423645049447e-05   0.0   -7.218656714888926e-05
-7.075423645049447e-05   0.0   -7.218656714888926e-05
-7.075423645049447e-05   0.0   -7.218656714888926e-05
-7.075423645049447e-05   0.0   -7.218656714888926e-05
-0.00013009964965979122   1.8361214076089303e-05   1.5705726420952063e-05
-0.00013009964965979122   1.8361214076089303e-05   1.5705726420952063e-05
-0.00013009964965979122   1.8361214076089303e-05   1.5705726420952063e-05
-0.00013009964965979122   1.8361214076089303e-05   1.5705726420952063e-05
-9.643932295608572e-05   7.693252245767482e-06   -3.3994040987030623e-05
-9.643932295608572e-05   7.693252245767482e-06   -3.3994040987030623e-05
-9.643932295608572e-05   7.693252245767482e-06   -3.3994040987030623e-05
-9.643932295608572e-05   7.693252245767482e-06   -3.3994040987030623e-05
-7.200405950255297e-05   0.0   -6.66834034841486e-05
-7.200405950255297e-05   0.0   -6.66834034841486e-05
-7.200405950255297e-05   0.0   -6.66834034841486e-05
-7.200405950255297e-05   0.0   -6.66834034841486e-05
-3.278636524706598e-05   4.6010842562588765e-06   1.4400708287516905e-06
-3.278636524706598e-05   4.6010842562588765e-06   1.4400708287516905e-06
-3.278636524706598e-05   4.6010842562588765e-06   1.4400708287516905e-06
-3.278636524706598e-05   4.6010842562588765e-06   1.4400708287516905e-06
-3.1537400515515474e-05   0.0   -6.610229958983551e-05
-3.1537400515515474e-05   0.0   -6.610229958983551e-05
-3.1537400515515474e-05   0.0   -6.610229958983551e-05
-3.1537400515515474e-05   0.0   -6.610229958983551e-05
-7.058378904986754e-05   6.54826379662428e-06   -4.953943643890178e-06
-7.058378904986754e-05   6.54826379662428e-06   -4.953943643890178e-06
-7.058378904986754e-05   6.54826379662428e-06   -4.953943643890178e-06
-7.058378904986754e-05   6.54826379662428e-06   -4.953943643890178e-06
-5.1770730009034166e-05   4.842532452608119e-07   -3.267063571446082e-05
-5.1770730009034166e-05   4.842532452608119e-07   -3.267063571446082e-05
-5.1770730009034166e-05   4.842532452608119e-07   -3.267063571446082e-05
-5.1770730009034166e-05   4.842532452608119e-07   -3.267063571446082e-05
-7.058378904986748e-05   0.0   -7.003125786781013e-05
-7.058378904986748e-05   0.0   -7.003125786781013e-05
-7.058378904986748e-05   0.0   -7.003125786781013e-05
-7.058378904986748e-05   0.0   -7.003125786781013e-05
-3.1537400515515474e-05   6.548263796624267e-06   -1.0249853659156076e-06
-3.1537400515515474e-05   6.548263796624267e-06   -1.0249853659156076e-06
-3.1537400515515474e-05   6.548263796624267e-06   -1.0249853659156076e-06
-3.1537400515515474e-05   6.548263796624267e-06   -1.0249853659156076e-06
-3.083759521899727e-05   0.0   -6.693289741484558e-05
-3.083759521899727e-05   0.0   -6.693289741484558e-05
-3.083759521899727e-05   0.0   -6.693289741484558e-05
-3.083759521899727e-05   0.0   -6.693289741484558e-05
-7.078688856274057e-05   8.02261198549933e-06   -5.164309033239896e-06
-7.078688856274057e-05   8.02261198549933e-06   -5.164309033239896e-06
-7.078688856274057e-05   8.02261198549933e-06   -5.164309033239896e-06
-7.078688856274057e-05   8.02261198549933e-06   -5.164309033239896e-06
-5.0710692134432335e-05   2.5819670441370706e-06   -3.5360249448935974e-05
-5.0710692134432335e-05   2.5819670441370706e-06   -3.5360249448935974e-05
-5.0710692134432335e-05   2.5819670441370706e-06   -3.5360249448935974e-05
-5.0710692134432335e-05   2.5819670441370706e-06   -3.5360249448935974e-05
-7.078688856274057e-05   0.0   -7.174646460614529e-05
-7.078688856274057e-05   0.0   -7.174646460614529e-05
-7.078688856274057e-05   0.0   -7.174646460614529e-05
-7.078688856274057e-05   0.0   -7.174646460614529e-05
-3.0837595218997316e-05   8.02261198549933e-06   -3.507418419403094e-07
-3.0837595218997316e-05   8.02261198549933e-06   -3.507418419403094e-07
-3.0837595218997316e-05   8.02261198549933e-06   -3.507418419403094e-07
-3.0837595218997316e-05   8.02261198549933e-06   -3.507418419403094e-07
-3.020103518915454e-05   0.0   -6.658599500318701e-05
-3.020103518915454e-05   0.0   -6.658599500318701e-05
-3.020103518915454e-05   0.0   -6.658599500318701e-05
-3.020103518915454e-05   0.0   -6.658599500318701e-05
-7.07542364504943e-05   9.334286909503617e-06   -4.597898379989348e-06
-7.07542364504943e-05   9.334286909503617e-06   -4.597898379989348e-06
-7.07542364504943e-05   9.334286909503617e-06   -4.597898379989348e-06
-7.07542364504943e-05   9.334286909503617e-06   -4.597898379989348e-06
-5.0493961875947536e-05   4.300391335798527e-06   -3.53446853266778e-05
-5.0493961875947536e-05   4.300391335798527e-06   -3.53446853266778e-05
-5.0493961875947536e-05   4.300391335798527e-06   -3.53446853266778e-05
-5.0493961875947536e-05   4.300391335798527e-06   -3.53446853266778e-05
-3.278636524706603e-05   0.0   -6.392275293039327e-05
-3.278636524706603e-05   0.0   -6.392275293039327e-05
-3.278636524706603e-05   0.0   -6.392275293039327e-05
-3.278636524706603e-05   0.0   -6.392275293039327e-05
4.270441906780229e-06   -5.884724769181059e-07   -2.514491160133635e-06
4.270441906780229e-06   -5.884724769181059e-07   -2.514491160133635e-06
4.270441906780229e-06   -5.884724769181059e-07   -2.514491160133635e-06
4.270441906780229e-06   -5.884724769181059e-07   -2.514491160133635e-06
5.065780927415992e-06   0.0   -6.540601310509472e-05
5.065780927415992e-06   0.0   -6.540601310509472e-05
5.065780927415992e-06   0.0   -6.540601310509472e-05
5.065780927415992e-06   0.0   -6.540601310509472e-05
-3.1537400515515474e-05   1.160477474567787e-06   -5.096997184949726e-06
-3.1537400515515474e-05   1.160477474567787e-06   -5.096997184949726e-06
-3.1537400515515474e-05   1.160477474567787e-06   -5.096997184949726e-06
-3.1537400515515474e-05   1.160477474567787e-06   -5.096997184949726e-06
-1.3860292159824988e-05   -1.2360501455847329e-06   -3.312092787234232e-05
-1.3860292159824988e-05   -1.2360501455847329e-06   -3.312092787234232e-05
-1.3860292159824988e-05   -1.2360501455847329e-06   -3.312092787234232e-05
-1.3860292159824988e-05   -1.2360501455847329e-06   -3.312092787234232e-05
-3.153740051551553e-05   0.0   -6.610229958983562e-05
-3.153740051551553e-05   0.0   -6.610229958983562e-05
-3.153740051551553e-05   0.0   -6.610229958983562e-05
-3.153740051551553e-05   0.0   -6.610229958983562e-05
5.0657809274160005e-06   1.160477474567787e-06   -4.400710700209046e-06
5.0657809274160005e-06   1.160477474567787e-06   -4.400710700209046e-06
5.0657809274160005e-06   1.160477474567787e-06   -4.400710700209046e-06
5.0657809274160005e-06   1.160477474567787e-06   -4.400710700209046e-06
5.692978815544781e-06   0.0   -6.531275023971372e-05
5.692978815544781e-06   0.0   -6.531275023971372e-05
5.692978815544781e-06   0.0   -6.531275023971372e-05
5.692978815544781e-06   0.0   -6.531275023971372e-05
-3.0837595218997215e-05   2.7002452918864234e-06   -6.04860735727551e-06
-3.0837595218997215e-05   2.7002452918864234e-06   -6.04860735727551e-06
-3.0837595218997215e-05   2.7002452918864234e-06   -6.04860735727551e-06
-3.0837595218997215e-05   2.7002452918864234e-06   -6.04860735727551e-06
-1.2922210849985345e-05   6.57957791768149e-07   -3.4682208805557715e-05
-1.2922210849985345e-05   6.57957791768149e-07   -3.4682208805557715e-05
-1.2922210849985345e-05   6.57957791768149e-07   -3.4682208805557715e-05
-1.2922210849985345e-05   6.57957791768149e-07   -3.4682208805557715e-05
-3.0837595218997316e-05   0.0   -6.69328974148457e-05
-3.0837595218997316e-05   0.0   -6.69328974148457e-05
-3.0837595218997316e-05   0.0   -6.69328974148457e-05
-3.0837595218997316e-05   0.0   -6.69328974148457e-05
5.6929788155447916e-06   2.700245291886437e-06   -4.428460182143672e-06
5.6929788155447916e-06   2.700245291886437e-06   -4.428460182143672e-06
5.6929788155447916e-06   2.700245291886437e-06   -4.428460182143672e-06
5.6929788155447916e-06   2.700245291886437e-06   -4.428460182143672e-06
6.5382179181305484e-06   0.0   -6.389563754402729e-05
6.5382179181305484e-06   0.0   -6.389563754402729e-05
6.5382179181305484e-06   0.0   -6.389563754402729e-05
6.5382179181305484e-06   0.0   -6.389563754402729e-05
-3.0201035189154516e-05   4.483929098599438e-06   -5.3539064910451854e-06
-3.0201035189154516e-05   4.483929098599438e-06   -5.3539064910451854e-06
-3.0201035189154516e-05   4.483929098599438e-06   -5.3539064910451854e-06
-3.0201035189154516e-05   4.483929098599438e-06   -5.3539064910451854e-06
-1.214968865043336e-05   2.5310498923485737e-06   -3.42677565318299e-05
-1.214968865043336e-05   2.5310498923485737e-06   -3.42677565318299e-05
-1.214968865043336e-05   2.5310498923485737e-06   -3.42677565318299e-05
-1.214968865043336e-05   2.5310498923485737e-06   -3.42677565318299e-05
4.270441906780237e-06   0.0   -6.427583641654413e-05
4.270441906780237e-06   0.0   -6.427583641654413e-05
4.270441906780237e-06   0.0   -6.427583641654413e-05
4.270441906780237e-06   0.0   -6.427583641654413e-05
4.449160761436319e-05   -5.2183898416350915e-06   -3.715941422199881e-07
4.449160761436319e-05   -5.2183898416350915e-06   -3.715941422199881e-07
4.449160761436319e-05   -5.2183898416350915e-06   -3.715941422199881e-07
4.449160761436319e-05   -5.2183898416350915e-06   -3.715941422199881e-07
4.456496529891916e-05   0.0   -6.776708171274123e-05
4.456496529891916e-05   0.0   -6.776708171274123e-05
4.456496529891916e-05   0.0   -6.776708171274123e-05
4.456496529891916e-05   0.0   -6.776708171274123e-05
5.0657809274160005e-06   -3.935114346077144e-06   4.259608474103034e-07
5.0657809274160005e-06   -3.935114346077144e-06   4.259608474103034e-07
5.0657809274160005e-06   -3.935114346077144e-06   4.259608474103034e-07
5.0657809274160005e-06   -3.935114346077144e-06   4.259608474103034e-07
2.44177036028497e-05   -2.909371080164259e-06   -3.2442689571193554e-05
2.44177036028497e-05   -2.909371080164259e-06   -3.2442689571193554e-05
2.44177036028497e-05   -2.909371080164259e-06   -3.2442689571193554e-05
2.44177036028497e-05   -2.909371080164259e-06   -3.2442689571193554e-05
5.06578092741601e-06   0.0   -6.540601310509495e-05
5.06578092741601e-06   0.0   -6.540601310509495e-05
5.06578092741601e-06   0.0   -6.540601310509495e-05
5.06578092741601e-06   0.0   -6.540601310509495e-05
4.456496529891908e-05   -3.935114346077144e-06   -1.9351077602359975e-06
4.456496529891908e-05   -3.935114346077144e-06   -1.9351077602359975e-06
4.456496529891908e-05   -3.935114346077144e-06   -1.9351077602359975e-06
4.456496529891908e-05   -3.935114346077144e-06   -1.9351077602359975e-06
4.436913970831737e-05   0.0   -6.679935213656292e-05
4.436913970831737e-05   0.0   -6.679935213656292e-05
4.436913970831737e-05   0.0   -6.679935213656292e-05
4.436913970831737e-05   0.0   -6.679935213656292e-05
5.6929788155447916e-06   -2.477669828081805e-06   -8.524820850928941e-07
5.6929788155447916e-06   -2.477669828081805e-06   -8.524820850928941e-07
5.6929788155447916e-06   -2.477669828081805e-06   -8.524820850928941e-07
5.6929788155447916e-06   -2.477669828081805e-06   -8.524820850928941e-07
2.471746031786669e-05   -1.161115859556647e-06   -3.3349883636744446e-05
2.471746031786669e-05   -1.161115859556647e-06   -3.3349883636744446e-05
2.471746031786669e-05   -1.161115859556647e-06   -3.3349883636744446e-05
2.471746031786669e-05   -1.161115859556647e-06   -3.3349883636744446e-05
5.6929788155447916e-06   0.0   -6.531275023971385e-05
5.6929788155447916e-06   0.0   -6.531275023971385e-05
5.6929788155447916e-06   0.0   -6.531275023971385e-05
5.6929788155447916e-06   0.0   -6.531275023971385e-05
4.436913970831729e-05   -2.4776698280817914e-06   -2.3390839819419443e-06
4.436913970831729e-05   -2.4776698280817914e-06   -2.3390839819419443e-06
4.436913970831729e-05   -2.4776698280817914e-06   -2.3390839819419443e-06
4.436913970831729e-05   -2.4776698280817914e-06   -2.3390839819419443e-06
4.522367023923679e-05   0.0   -6.420697006960315e-05
4.522367023923679e-05   0.0   -6.420697006960315e-05
4.522367023923679e-05   0.0   -6.420697006960315e-05
4.522367023923679e-05   0.0   -6.420697006960315e-05
6.53821791813056e-06   -5.188875426262506e-07   5.801163244829639e-07
6.53821791813056e-06   -5.188875426262506e-07   5.801163244829639e-07
6.53821791813056e-06   -5.188875426262506e-07   5.801163244829639e-07
6.53821791813056e-06   -5.188875426262506e-07   5.801163244829639e-07
2.545832452739079e-05   9.214834750922434e-07   -3.181761730158182e-05
2.545832452739079e-05   9.214834750922434e-07   -3.181761730158182e-05
2.545832452739079e-05   9.214834750922434e-07   -3.181761730158182e-05
2.545832452739079e-05   9.214834750922434e-07   -3.181761730158182e-05
4.449160761436334e-05   0.0   -6.74068703215252e-05
4.449160761436334e-05   0.0   -6.74068703215252e-05
4.449160761436334e-05   0.0   -6.74068703215252e-05
4.449160761436334e-05   0.0   -6.74068703215252e-05
0.00010041572391739882   -1.322472195996865e-05   1.7865157007553083e-05
0.00010041572391739882   -1.322472195996865e-05   1.7865157007553083e-05
0.00010041572391739882   -1.322472195996865e-05   1.7865157007553083e-05
0.00010041572391739882   -1.322472195996865e-05   1.7865157007553083e-05
9.429909323385363e-05   0.0   -7.452018616349464e-05
9.429909323385363e-05   0.0   -7.452018616349464e-05
9.429909323385363e-05   0.0   -7.452018616349464e-05
9.429909323385363e-05   0.0   -7.452018616349464e-05
4.456496529891908e-05   -1.1255174084588988e-05   1.5123131512149516e-05
4.456496529891908e-05   -1.1255174084588988e-05   1.5123131512149516e-05
4.456496529891908e-05   -1.1255174084588988e-05   1.5123131512149516e-05
4.456496529891908e-05   -1.1255174084588988e-05   1.5123131512149516e-05
6.93953504241085e-05   -5.927763201641201e-06   -2.9457290226267978e-05
6.93953504241085e-05   -5.927763201641201e-06   -2.9457290226267978e-05
6.93953504241085e-05   -5.927763201641201e-06   -2.9457290226267978e-05
6.93953504241085e-05   -5.927763201641201e-06   -2.9457290226267978e-05
4.456496529891912e-05   0.0   -6.776708171274118e-05
4.456496529891912e-05   0.0   -6.776708171274118e-05
4.456496529891912e-05   0.0   -6.776708171274118e-05
4.456496529891912e-05   0.0   -6.776708171274118e-05
9.429909323385363e-05   -1.1255174084589016e-05   8.37002706139615e-06
9.429909323385363e-05   -1.1255174084589016e-05   8.37002706139615e-06
9.429909323385363e-05   -1.1255174084589016e-05   8.37002706139615e-06
9.429909323385363e-05   -1.1255174084589016e-05   8.37002706139615e-06
9.147622973433983e-05   0.0   -7.297081633630965e-05
9.147622973433983e-05   0.0   -7.297081633630965e-05
9.147622973433983e-05   0.0   -7.297081633630965e-05
9.147622973433983e-05   0.0   -7.297081633630965e-05
4.436913970831729e-05   -1.028577366624454e-05   1.1712464573474484e-05
4.436913970831729e-05   -1.028577366624454e-05   1.1712464573474484e-05
4.436913970831729e-05   -1.028577366624454e-05   1.1712464573474484e-05
4.436913970831729e-05   -1.028577366624454e-05   1.1712464573474484e-05
6.802059751662945e-05   -4.336445519640352e-06   -3.127622866167484e-05
6.802059751662945e-05   -4.336445519640352e-06   -3.127622866167484e-05
6.802059751662945e-05   -4.336445519640352e-06   -3.127622866167484e-05
6.802059751662945e-05   -4.336445519640352e-06   -3.127622866167484e-05
4.436913970831737e-05   0.0   -6.679935213656292e-05
4.436913970831737e-05   0.0   -6.679935213656292e-05
4.436913970831737e-05   0.0   -6.679935213656292e-05
4.436913970831737e-05   0.0   -6.679935213656292e-05
9.147622973433967e-05   -1.028577366624454e-05   5.541000373727762e-06
9.147622973433967e-05   -1.028577366624454e-05   5.541000373727762e-06
9.147622973433967e-05   -1.028577366624454e-05   5.541000373727762e-06
9.147622973433967e-05   -1.028577366624454e-05   5.541000373727762e-06
8.727724697417871e-05   0.0   -6.900572477574756e-05
8.727724697417871e-05   0.0   -6.900572477574756e-05
8.727724697417871e-05   0.0   -6.900572477574756e-05
8.727724697417871e-05   0.0   -6.900572477574756e-05
4.5223670239236667e-05   -7.99792451024066e-06   5.882324488633414e-06
4.5223670239236667e-05   -7.99792451024066e-06   5.882324488633414e-06
4.5223670239236667e-05   -7.99792451024066e-06   5.882324488633414e-06
4.5223670239236667e-05   -7.99792451024066e-06   5.882324488633414e-06
6.582319334124793e-05   -1.8386438659871973e-06   -3.21457824012707e-05
6.582319334124793e-05   -1.8386438659871973e-06   -3.21457824012707e-05
6.582319334124793e-05   -1.8386438659871973e-06   -3.21457824012707e-05
6.582319334124793e-05   -1.8386438659871973e-06   -3.21457824012707e-05
-9.821110394649357e-05   1.254159409352092e-05   -6.44048640249531e-05
-9.821110394649357e-05   1.254159409352092e-05   -6.44048640249531e-05
-9.821110394649357e-05   1.254159409352092e-05   -6.44048640249531e-05
-9.821110394649357e-05   1.254159409352092e-05   -6.44048640249531e-05
-6.289997666028102e-05   1.128075261966425e-05   -6.309490098912757e-06