<?xml version="1.0"?> 
<VTKFile type="UnstructuredGrid"> 
   <UnstructuredGrid> 
      <Piece NumberOfPoints="6000"  NumberOfCells="1500">  
          <Points>  
             <DataArray type="Float64" NumberOfComponents="3" format="ascii">   
-500.0   0.0   0.0
-450.0   0.0   0.0
-500.0   30.0   0.0
-500.0   0.0   16.666666666666668
-450.0   0.0   0.0
-450.0   30.0   0.0
-500.0   30.0   0.0
-450.0   30.0   16.666666666666668
-500.0   0.0   16.666666666666668
-500.0   30.0   16.666666666666668
-450.0   30.0   16.666666666666668
-500.0   30.0   0.0
-500.0   0.0   16.666666666666668
-450.0   30.0   16.666666666666668
-450.0   0.0   16.666666666666668
-450.0   0.0   0.0
-500.0   0.0   16.666666666666668
-450.0   30.0   16.666666666666668
-450.0   0.0   0.0
-500.0   30.0   0.0
-500.0   0.0   16.666666666666668
-450.0   0.0   16.666666666666668
-500.0   30.0   16.666666666666668
-500.0   0.0   33.333333333333336
-450.0   0.0   16.666666666666668
-450.0   30.0   16.666666666666668
-500.0   30.0   16.666666666666668
-450.0   30.0   33.333333333333336
-500.0   0.0   33.333333333333336
-500.0   30.0   33.333333333333336
-450.0   30.0   33.333333333333336
-500.0   30.0   16.666666666666668
-500.0   0.0   33.333333333333336
-450.0   30.0   33.333333333333336
-450.0   0.0   33.333333333333336
-450.0   0.0   16.666666666666668
-500.0   0.0   33.333333333333336
-450.0   30.0   33.333333333333336
-450.0   0.0   16.666666666666668
-500.0   30.0   16.666666666666668
-500.0   0.0   33.333333333333336
-450.0   0.0   33.333333333333336
-500.0   30.0   33.333333333333336
-500.0   0.0   50.0
-450.0   0.0   33.333333333333336
-450.0   30.0   33.333333333333336
-500.0   30.0   33.333333333333336
-450.0   30.0   50.0
-500.0   0.0   50.0
-500.0   30.0   50.0
-450.0   30.0   50.0
-500.0   30.0   33.333333333333336
-500.0   0.0   50.0
-450.0   30.0   50.0
-450.0   0.0   50.0
-450.0   0.0   33.333333333333336
-500.0   0.0   50.0
-450.0   30.0   50.0
-450.0   0.0   33.333333333333336
-500.0   30.0   33.333333333333336
-500.0   30.0   0.0
-450.0   30.0   0.0
-500.0   60.0   0.0
-500.0   30.0   16.666666666666668
-450.0   30.0   0.0
-450.0   60.0   0.0
-500.0   60.0   0.0
-450.0   60.0   16.666666666666668
-500.0   30.0   16.666666666666668
-500.0   60.0   16.666666666666668
-450.0   60.0   16.666666666666668
-500.0   60.0   0.0
-500.0   30.0   16.666666666666668
-450.0   60.0   16.666666666666668
-450.0   30.0   16.666666666666668
-450.0   30.0   0.0
-500.0   30.0   16.666666666666668
-450.0   60.0   16.666666666666668
-450.0   30.0   0.0
-500.0   60.0   0.0
-500.0   30.0   16.666666666666668
-450.0   30.0   16.666666666666668
-500.0   60.0   16.666666666666668
-500.0   30.0   33.333333333333336
-450.0   30.0   16.666666666666668
-450.0   60.0   16.666666666666668
-500.0   60.0   16.666666666666668
-450.0   60.0   33.333333333333336
-500.0   30.0   33.333333333333336
-500.0   60.0   33.333333333333336
-450.0   60.0   33.333333333333336
-500.0   60.0   16.666666666666668
-500.0   30.0   33.333333333333336
-450.0   60.0   33.333333333333336
-450.0   30.0   33.333333333333336
-450.0   30.0   16.666666666666668
-500.0   30.0   33.333333333333336
-450.0   60.0   33.333333333333336
-450.0   30.0   16.666666666666668
-500.0   60.0   16.666666666666668
-500.0   30.0   33.333333333333336
-450.0   30.0   33.333333333333336
-500.0   60.0   33.333333333333336
-500.0   30.0   50.0
-450.0   30.0   33.333333333333336
-450.0   60.0   33.333333333333336
-500.0   60.0   33.333333333333336
-450.0   60.0   50.0
-500.0   30.0   50.0
-500.0   60.0   50.0
-450.0   60.0   50.0
-500.0   60.0   33.333333333333336
-500.0   30.0   50.0
-450.0   60.0   50.0
-450.0   30.0   50.0
-450.0   30.0   33.333333333333336
-500.0   30.0   50.0
-450.0   60.0   50.0
-450.0   30.0   33.333333333333336
-500.0   60.0   33.333333333333336
-500.0   60.0   0.0
-450.0   60.0   0.0
-500.0   90.0   0.0
-500.0   60.0   16.666666666666668
-450.0   60.0   0.0
-450.0   90.0   0.0
-500.0   90.0   0.0
-450.0   90.0   16.666666666666668
-500.0   60.0   16.666666666666668
-500.0   90.0   16.666666666666668
-450.0   90.0   16.666666666666668
-500.0   90.0   0.0
-500.0   60.0   16.666666666666668
-450.0   90.0   16.666666666666668
-450.0   60.0   16.666666666666668
-450.0   60.0   0.0
-500.0   60.0   16.666666666666668
-450.0   90.0   16.666666666666668
-450.0   60.0   0.0
-500.0   90.0   0.0
-500.0   60.0   16.666666666666668
-450.0   60.0   16.666666666666668
-500.0   90.0   16.666666666666668
-500.0   60.0   33.333333333333336
-450.0   60.0   16.666666666666668
-450.0   90.0   16.666666666666668
-500.0   90.0   16.666666666666668
-450.0   90.0   33.333333333333336
-500.0   60.0   33.333333333333336
-500.0   90.0   33.333333333333336
-450.0   90.0   33.333333333333336
-500.0   90.0   16.666666666666668
-500.0   60.0   33.333333333333336
-450.0   90.0   33.333333333333336
-450.0   60.0   33.333333333333336
-450.0   60.0   16.666666666666668
-500.0   60.0   33.333333333333336
-450.0   90.0   33.333333333333336
-450.0   60.0   16.666666666666668
-500.0   90.0   16.666666666666668
-500.0   60.0   33.333333333333336
-450.0   60.0   33.333333333333336
-500.0   90.0   33.333333333333336
-500.0   60.0   50.0
-450.0   60.0   33.333333333333336
-450.0   90.0   33.333333333333336
-500.0   90.0   33.333333333333336
-450.0   90.0   50.0
-500.0   60.0   50.0
-500.0   90.0   50.0
-450.0   90.0   50.0
-500.0   90.0   33.333333333333336
-500.0   60.0   50.0
-450.0   90.0   50.0
-450.0   60.0   50.0
-450.0   60.0   33.333333333333336
-500.0   60.0   50.0
-450.0   90.0   50.0
-450.0   60.0   33.333333333333336
-500.0   90.0   33.333333333333336
-500.0   90.0   0.0
-450.0   90.0   0.0
-500.0   120.0   0.0
-500.0   90.0   16.666666666666668
-450.0   90.0   0.0
-450.0   120.0   0.0
-500.0   120.0   0.0
-450.0   120.0   16.666666666666668
-500.0   90.0   16.666666666666668
-500.0   120.0   16.666666666666668
-450.0   120.0   16.666666666666668
-500.0   120.0   0.0
-500.0   90.0   16.666666666666668
-450.0   120.0   16.666666666666668
-450.0   90.0   16.666666666666668
-450.0   90.0   0.0
-500.0   90.0   16.666666666666668
-450.0   120.0   16.666666666666668
-450.0   90.0   0.0
-500.0   120.0   0.0
-500.0   90.0   16.666666666666668
-450.0   90.0   16.666666666666668
-500.0   120.0   16.666666666666668
-500.0   90.0   33.333333333333336
-450.0   90.0   16.666666666666668
-450.0   120.0   16.666666666666668
-500.0   120.0   16.666666666666668
-450.0   120.0   33.333333333333336
-500.0   90.0   33.333333333333336
-500.0   120.0   33.333333333333336
-450.0   120.0   33.333333333333336
-500.0   120.0   16.666666666666668
-500.0   90.0   33.333333333333336
-450.0   120.0   33.333333333333336
-450.0   90.0   33.333333333333336
-450.0   90.0   16.666666666666668
-500.0   90.0   33.333333333333336
-450.0   120.0   33.333333333333336
-450.0   90.0   16.666666666666668
-500.0   120.0   16.666666666666668
-500.0   90.0   33.333333333333336
-450.0   90.0   33.333333333333336
-500.0   120.0   33.333333333333336
-500.0   90.0   50.0
-450.0   90.0   33.333333333333336
-450.0   120.0   33.333333333333336
-500.0   120.0   33.333333333333336
-450.0   120.0   50.0
-500.0   90.0   50.0
-500.0   120.0   50.0
-450.0   120.0   50.0
-500.0   120.0   33.333333333333336
-500.0   90.0   50.0
-450.0   120.0   50.0
-450.0   90.0   50.0
-450.0   90.0   33.333333333333336
-500.0   90.0   50.0
-450.0   120.0   50.0
-450.0   90.0   33.333333333333336
-500.0   120.0   33.333333333333336
-500.0   120.0   0.0
-450.0   120.0   0.0
-500.0   150.0   0.0
-500.0   120.0   16.666666666666668
-450.0   120.0   0.0
-450.0   150.0   0.0
-500.0   150.0   0.0
-450.0   150.0   16.666666666666668
-500.0   120.0   16.666666666666668
-500.0   150.0   16.666666666666668
-450.0   150.0   16.666666666666668
-500.0   150.0   0.0
-500.0   120.0   16.666666666666668
-450.0   150.0   16.666666666666668
-450.0   120.0   16.666666666666668
-450.0   120.0   0.0
-500.0   120.0   16.666666666666668
-450.0   150.0   16.666666666666668
-450.0   120.0   0.0
-500.0   150.0   0.0
-500.0   120.0   16.666666666666668
-450.0   120.0   16.666666666666668
-500.0   150.0   16.666666666666668
-500.0   120.0   33.333333333333336
-450.0   120.0   16.666666666666668
-450.0   150.0   16.666666666666668
-500.0   150.0   16.666666666666668
-450.0   150.0   33.333333333333336
-500.0   120.0   33.333333333333336
-500.0   150.0   33.333333333333336
-450.0   150.0   33.333333333333336
-500.0   150.0   16.666666666666668
-500.0   120.0   33.333333333333336
-450.0   150.0   33.333333333333336
-450.0   120.0   33.333333333333336
-450.0   120.0   16.666666666666668
-500.0   120.0   33.333333333333336
-450.0   150.0   33.333333333333336
-450.0   120.0   16.666666666666668
-500.0   150.0   16.666666666666668
-500.0   120.0   33.333333333333336
-450.0   120.0   33.333333333333336
-500.0   150.0   33.333333333333336
-500.0   120.0   50.0
-450.0   120.0   33.333333333333336
-450.0   150.0   33.333333333333336
-500.0   150.0   33.333333333333336
-450.0   150.0   50.0
-500.0   120.0   50.0
-500.0   150.0   50.0
-450.0   150.0   50.0
-500.0   150.0   33.333333333333336
-500.0   120.0   50.0
-450.0   150.0   50.0
-450.0   120.0   50.0
-450.0   120.0   33.333333333333336
-500.0   120.0   50.0
-450.0   150.0   50.0
-450.0   120.0   33.333333333333336
-500.0   150.0   33.333333333333336
-450.0   0.0   0.0
-400.0   0.0   0.0
-450.0   30.0   0.0
-450.0   0.0   16.666666666666668
-400.0   0.0   0.0
-400.0   30.0   0.0
-450.0   30.0   0.0
-400.0   30.0   16.666666666666668
-450.0   0.0   16.666666666666668
-450.0   30.0   16.666666666666668
-400.0   30.0   16.666666666666668
-450.0   30.0   0.0
-450.0   0.0   16.666666666666668
-400.0   30.0   16.666666666666668
-400.0   0.0   16.666666666666668
-400.0   0.0   0.0
-450.0   0.0   16.666666666666668
-400.0   30.0   16.666666666666668
-400.0   0.0   0.0
-450.0   30.0   0.0
-450.0   0.0   16.666666666666668
-400.0   0.0   16.666666666666668
-450.0   30.0   16.666666666666668
[...]
          <PointData>  
             <DataArray type="Float64" NumberOfComponents="3" Name="Strains" format="ascii">   
-7.559751794597597e-05   0.0   -4.966725020005451e-05
-7.559751794597597e-05   0.0   -4.966725020005451e-05
-7.559751794597597e-05   0.0   -4.966725020005451e-05
-7.559751794597597e-05   0.0   -4.966725020005451e-05
-4.8098975547872585e-05   8.367793695234803e-06   1.1843300139252388e-06
-4.8098975547872585e-05   8.367793695234803e-06   1.1843300139252388e-06
-4.8098975547872585e-05   8.367793695234803e-06   1.1843300139252388e-06
-4.8098975547872585e-05   8.367793695234803e-06   1.1843300139252388e-06
-4.7144280926733625e-05   0.0   -4.688299571181343e-05
-4.7144280926733625e-05   0.0   -4.688299571181343e-05
-4.7144280926733625e-05   0.0   -4.688299571181343e-05
-4.7144280926733625e-05   0.0   -4.688299571181343e-05
-7.911211086392154e-05   1.0045100136218087e-05   3.696607684357993e-07
-7.911211086392154e-05   1.0045100136218087e-05   3.696607684357993e-07
-7.911211086392154e-05   1.0045100136218087e-05   3.696607684357993e-07
-7.911211086392154e-05   1.0045100136218087e-05   3.696607684357993e-07
-6.137089943635469e-05   2.320212073534235e-06   -2.4564092106565292e-05
-6.137089943635469e-05   2.320212073534235e-06   -2.4564092106565292e-05
-6.137089943635469e-05   2.320212073534235e-06   -2.4564092106565292e-05
-6.137089943635469e-05   2.320212073534235e-06   -2.4564092106565292e-05
-7.911211086392168e-05   0.0   -5.291005579354429e-05
-7.911211086392168e-05   0.0   -5.291005579354429e-05
-7.911211086392168e-05   0.0   -5.291005579354429e-05
-7.911211086392168e-05   0.0   -5.291005579354429e-05
-4.7144280926733625e-05   1.00451001362181e-05   6.396720850166651e-06
-4.7144280926733625e-05   1.00451001362181e-05   6.396720850166651e-06
-4.7144280926733625e-05   1.00451001362181e-05   6.396720850166651e-06
-4.7144280926733625e-05   1.00451001362181e-05   6.396720850166651e-06
-4.7273502812164856e-05   0.0   -4.8029521847662654e-05
-4.7273502812164856e-05   0.0   -4.8029521847662654e-05
-4.7273502812164856e-05   0.0   -4.8029521847662654e-05
-4.7273502812164856e-05   0.0   -4.8029521847662654e-05
-8.157866113598649e-05   1.0762715138610185e-05   2.688112942207492e-06
-8.157866113598649e-05   1.0762715138610185e-05   2.688112942207492e-06
-8.157866113598649e-05   1.0762715138610185e-05   2.688112942207492e-06
-8.157866113598649e-05   1.0762715138610185e-05   2.688112942207492e-06
-6.319280683804316e-05   4.06711162156802e-06   -2.393761544413939e-05
-6.319280683804316e-05   4.06711162156802e-06   -2.393761544413939e-05
-6.319280683804316e-05   4.06711162156802e-06   -2.393761544413939e-05
-6.319280683804316e-05   4.06711162156802e-06   -2.393761544413939e-05
-8.157866113598663e-05   0.0   -5.448715093082878e-05
-8.157866113598663e-05   0.0   -5.448715093082878e-05
-8.157866113598663e-05   0.0   -5.448715093082878e-05
-8.157866113598663e-05   0.0   -5.448715093082878e-05
-4.7273502812164774e-05   1.0762715138610185e-05   9.145742025373608e-06
-4.7273502812164774e-05   1.0762715138610185e-05   9.145742025373608e-06
-4.7273502812164774e-05   1.0762715138610185e-05   9.145742025373608e-06
-4.7273502812164774e-05   1.0762715138610185e-05   9.145742025373608e-06
-4.7244446310250744e-05   0.0   -4.8324722044895255e-05
-4.7244446310250744e-05   0.0   -4.8324722044895255e-05
-4.7244446310250744e-05   0.0   -4.8324722044895255e-05
-4.7244446310250744e-05   0.0   -4.8324722044895255e-05
-8.689599485992868e-05   1.2263762306800408e-05   1.0402934820487932e-05
-8.689599485992868e-05   1.2263762306800408e-05   1.0402934820487932e-05
-8.689599485992868e-05   1.2263762306800408e-05   1.0402934820487932e-05
-8.689599485992868e-05   1.2263762306800408e-05   1.0402934820487932e-05
-6.441155372311858e-05   5.1353574049445926e-06   -2.279409079974871e-05
-6.441155372311858e-05   5.1353574049445926e-06   -2.279409079974871e-05
-6.441155372311858e-05   5.1353574049445926e-06   -2.279409079974871e-05
-6.441155372311858e-05   5.1353574049445926e-06   -2.279409079974871e-05
-4.809897554787267e-05   0.0   -4.4646573982913634e-05
-4.809897554787267e-05   0.0   -4.4646573982913634e-05
-4.809897554787267e-05   0.0   -4.4646573982913634e-05
-4.809897554787267e-05   0.0   -4.4646573982913634e-05
-2.1908850886840548e-05   3.0676345000515422e-06   8.442144855041331e-07
-2.1908850886840548e-05   3.0676345000515422e-06   8.442144855041331e-07
-2.1908850886840548e-05   3.0676345000515422e-06   8.442144855041331e-07
-2.1908850886840548e-05   3.0676345000515422e-06   8.442144855041331e-07
-2.1067984187189587e-05   0.0   -4.42612029423565e-05
-2.1067984187189587e-05   0.0   -4.42612029423565e-05
-2.1067984187189587e-05   0.0   -4.42612029423565e-05
-2.1067984187189587e-05   0.0   -4.42612029423565e-05
-4.7144280926733625e-05   4.36965461576143e-06   -3.4225011459067776e-06
-4.7144280926733625e-05   4.36965461576143e-06   -3.4225011459067776e-06
-4.7144280926733625e-05   4.36965461576143e-06   -3.4225011459067776e-06
-4.7144280926733625e-05   4.36965461576143e-06   -3.4225011459067776e-06
-3.4583479867531085e-05   3.2114253379754865e-07   -2.192806232873251e-05
-3.4583479867531085e-05   3.2114253379754865e-07   -2.192806232873251e-05
-3.4583479867531085e-05   3.2114253379754865e-07   -2.192806232873251e-05
-3.4583479867531085e-05   3.2114253379754865e-07   -2.192806232873251e-05
-4.7144280926733585e-05   0.0   -4.688299571181339e-05
-4.7144280926733585e-05   0.0   -4.688299571181339e-05
-4.7144280926733585e-05   0.0   -4.688299571181339e-05
-4.7144280926733585e-05   0.0   -4.688299571181339e-05
-2.1067984187189587e-05   4.369654615761417e-06   -8.007083764499114e-07
-2.1067984187189587e-05   4.369654615761417e-06   -8.007083764499114e-07
-2.1067984187189587e-05   4.369654615761417e-06   -8.007083764499114e-07
-2.1067984187189587e-05   4.369654615761417e-06   -8.007083764499114e-07
-2.0594201467593378e-05   0.0   -4.481602839127114e-05
-2.0594201467593378e-05   0.0   -4.481602839127114e-05
-2.0594201467593378e-05   0.0   -4.481602839127114e-05
-2.0594201467593378e-05   0.0   -4.481602839127114e-05
-4.7273502812164856e-05   5.355822427319056e-06   -3.5640196067102527e-06
-4.7273502812164856e-05   5.355822427319056e-06   -3.5640196067102527e-06
-4.7273502812164856e-05   5.355822427319056e-06   -3.5640196067102527e-06
-4.7273502812164856e-05   5.355822427319056e-06   -3.5640196067102527e-06
-3.386924119716345e-05   1.7224727671185118e-06   -2.3724445835592072e-05
-3.386924119716345e-05   1.7224727671185118e-06   -2.3724445835592072e-05
-3.386924119716345e-05   1.7224727671185118e-06   -2.3724445835592072e-05
-3.386924119716345e-05   1.7224727671185118e-06   -2.3724445835592072e-05
-4.7273502812164856e-05   0.0   -4.8029521847662654e-05
-4.7273502812164856e-05   0.0   -4.8029521847662654e-05
-4.7273502812164856e-05   0.0   -4.8029521847662654e-05
-4.7273502812164856e-05   0.0   -4.8029521847662654e-05
-2.059420146759341e-05   5.355822427319056e-06   -3.5052615031881776e-07
-2.059420146759341e-05   5.355822427319056e-06   -3.5052615031881776e-07
-2.059420146759341e-05   5.355822427319056e-06   -3.5052615031881776e-07
-2.059420146759341e-05   5.355822427319056e-06   -3.5052615031881776e-07
-2.0162168465863185e-05   0.0   -4.4584916035515716e-05
-2.0162168465863185e-05   0.0   -4.4584916035515716e-05
-2.0162168465863185e-05   0.0   -4.4584916035515716e-05
-2.0162168465863185e-05   0.0   -4.4584916035515716e-05
-4.724444631025062e-05   6.233010015632495e-06   -3.1875923042493163e-06
-4.724444631025062e-05   6.233010015632495e-06   -3.1875923042493163e-06
-4.724444631025062e-05   6.233010015632495e-06   -3.1875923042493163e-06
-4.724444631025062e-05   6.233010015632495e-06   -3.1875923042493163e-06
-3.371783563901401e-05   2.8705048434557475e-06   -2.3714440319671123e-05
-3.371783563901401e-05   2.8705048434557475e-06   -2.3714440319671123e-05
-3.371783563901401e-05   2.8705048434557475e-06   -2.3714440319671123e-05
-3.371783563901401e-05   2.8705048434557475e-06   -2.3714440319671123e-05
-2.1908850886840585e-05   0.0   -4.28059932828827e-05
-2.1908850886840585e-05   0.0   -4.28059932828827e-05
-2.1908850886840585e-05   0.0   -4.28059932828827e-05
-2.1908850886840585e-05   0.0   -4.28059932828827e-05
2.8327063272867945e-06   -3.940200081491732e-07   -1.8064765975598669e-06
2.8327063272867945e-06   -3.940200081491732e-07   -1.8064765975598669e-06
2.8327063272867945e-06   -3.940200081491732e-07   -1.8064765975598669e-06
2.8327063272867945e-06   -3.940200081491732e-07   -1.8064765975598669e-06
3.371160761882476e-06   0.0   -4.379613021914456e-05
3.371160761882476e-06   0.0   -4.379613021914456e-05
3.371160761882476e-06   0.0   -4.379613021914456e-05
3.371160761882476e-06   0.0   -4.379613021914456e-05
-2.1067984187189587e-05   7.751212053531053e-07   -3.5292946939030552e-06
-2.1067984187189587e-05   7.751212053531053e-07   -3.5292946939030552e-06
-2.1067984187189587e-05   7.751212053531053e-07   -3.5292946939030552e-06
-2.1067984187189587e-05   7.751212053531053e-07   -3.5292946939030552e-06
-9.268845062479032e-06   -8.251141135516766e-07   -2.223438537707776e-05
-9.268845062479032e-06   -8.251141135516766e-07   -2.223438537707776e-05
-9.268845062479032e-06   -8.251141135516766e-07   -2.223438537707776e-05
-9.268845062479032e-06   -8.251141135516766e-07   -2.223438537707776e-05
-2.106798418718962e-05   0.0   -4.426120294235657e-05
-2.106798418718962e-05   0.0   -4.426120294235657e-05
-2.106798418718962e-05   0.0   -4.426120294235657e-05
-2.106798418718962e-05   0.0   -4.426120294235657e-05
3.371160761882482e-06   7.751212053531053e-07   -3.064221970691195e-06
3.371160761882482e-06   7.751212053531053e-07   -3.064221970691195e-06
3.371160761882482e-06   7.751212053531053e-07   -3.064221970691195e-06
3.371160761882482e-06   7.751212053531053e-07   -3.064221970691195e-06
3.796636583591151e-06   0.0   -4.373318655434802e-05
3.796636583591151e-06   0.0   -4.373318655434802e-05
3.796636583591151e-06   0.0   -4.373318655434802e-05
3.796636583591151e-06   0.0   -4.373318655434802e-05
-2.059420146759334e-05   1.8047363948718505e-06   -4.164631639296933e-06
-2.059420146759334e-05   1.8047363948718505e-06   -4.164631639296933e-06
-2.059420146759334e-05   1.8047363948718505e-06   -4.164631639296933e-06
-2.059420146759334e-05   1.8047363948718505e-06   -4.164631639296933e-06
-8.635673801799218e-06   4.4001365667372197e-07   -2.3276677439368296e-05
-8.635673801799218e-06   4.4001365667372197e-07   -2.3276677439368296e-05
-8.635673801799218e-06   4.4001365667372197e-07   -2.3276677439368296e-05
-8.635673801799218e-06   4.4001365667372197e-07   -2.3276677439368296e-05
-2.059420146759341e-05   0.0   -4.481602839127122e-05
-2.059420146759341e-05   0.0   -4.481602839127122e-05
-2.059420146759341e-05   0.0   -4.481602839127122e-05
-2.059420146759341e-05   0.0   -4.481602839127122e-05
3.796636583591158e-06   1.804736394871864e-06   -3.08178980237382e-06
3.796636583591158e-06   1.804736394871864e-06   -3.08178980237382e-06
3.796636583591158e-06   1.804736394871864e-06   -3.08178980237382e-06
3.796636583591158e-06   1.804736394871864e-06   -3.08178980237382e-06
4.3678770330933415e-06   0.0   -4.27866733020386e-05
4.3678770330933415e-06   0.0   -4.27866733020386e-05
4.3678770330933415e-06   0.0   -4.27866733020386e-05
4.3678770330933415e-06   0.0   -4.27866733020386e-05
-2.0162168465863168e-05   2.997071222461792e-06   -3.7015068705881625e-06
-2.0162168465863168e-05   2.997071222461792e-06   -3.7015068705881625e-06
-2.0162168465863168e-05   2.997071222461792e-06   -3.7015068705881625e-06
-2.0162168465863168e-05   2.997071222461792e-06   -3.7015068705881625e-06
-8.113162217250017e-06   1.6911292410271155e-06   -2.2999618762749254e-05
-8.113162217250017e-06   1.6911292410271155e-06   -2.2999618762749254e-05
-8.113162217250017e-06   1.6911292410271155e-06   -2.2999618762749254e-05
-8.113162217250017e-06   1.6911292410271155e-06   -2.2999618762749254e-05
2.832706327286799e-06   0.0   -4.304240528777221e-05
2.832706327286799e-06   0.0   -4.304240528777221e-05
2.832706327286799e-06   0.0   -4.304240528777221e-05
2.832706327286799e-06   0.0   -4.304240528777221e-05
2.969246854814332e-05   -3.4826429502914552e-06   -3.65720689852679e-07
2.969246854814332e-05   -3.4826429502914552e-06   -3.65720689852679e-07
2.969246854814332e-05   -3.4826429502914552e-06   -3.65720689852679e-07
2.969246854814332e-05   -3.4826429502914552e-06   -3.65720689852679e-07
2.974950275252186e-05   0.0   -4.537076997999562e-05
2.974950275252186e-05   0.0   -4.537076997999562e-05
2.974950275252186e-05   0.0   -4.537076997999562e-05
2.974950275252186e-05   0.0   -4.537076997999562e-05
3.371160761882482e-06   -2.624399601418179e-06   1.6777309858756975e-07
3.371160761882482e-06   -2.624399601418179e-06   1.6777309858756975e-07
3.371160761882482e-06   -2.624399601418179e-06   1.6777309858756975e-07
3.371160761882482e-06   -2.624399601418179e-06   1.6777309858756975e-07
1.629110453990433e-05   -1.9403039101861794e-06   -2.1775923946188012e-05
1.629110453990433e-05   -1.9403039101861794e-06   -2.1775923946188012e-05
1.629110453990433e-05   -1.9403039101861794e-06   -2.1775923946188012e-05
1.629110453990433e-05   -1.9403039101861794e-06   -2.1775923946188012e-05
3.371160761882488e-06   0.0   -4.379613021914471e-05
3.371160761882488e-06   0.0   -4.379613021914471e-05
3.371160761882488e-06   0.0   -4.379613021914471e-05
3.371160761882488e-06   0.0   -4.379613021914471e-05
2.974950275252181e-05   -2.624399601418179e-06   -1.406866662263337e-06
2.974950275252181e-05   -2.624399601418179e-06   -1.406866662263337e-06
2.974950275252181e-05   -2.624399601418179e-06   -1.406866662263337e-06
2.974950275252181e-05   -2.624399601418179e-06   -1.406866662263337e-06
2.96257404508098e-05   0.0   -4.4722922862456786e-05
2.96257404508098e-05   0.0   -4.4722922862456786e-05
2.96257404508098e-05   0.0   -4.4722922862456786e-05
2.96257404508098e-05   0.0   -4.4722922862456786e-05
3.796636583591158e-06   -1.649560513514479e-06   -6.846801089837007e-07
3.796636583591158e-06   -1.649560513514479e-06   -6.846801089837007e-07
3.796636583591158e-06   -1.649560513514479e-06   -6.846801089837007e-07
3.796636583591158e-06   -1.649560513514479e-06   -6.846801089837007e-07
1.6498450606346145e-05   -7.723272027600566e-07   -2.2380710133361307e-05
1.6498450606346145e-05   -7.723272027600566e-07   -2.2380710133361307e-05
1.6498450606346145e-05   -7.723272027600566e-07   -2.2380710133361307e-05
1.6498450606346145e-05   -7.723272027600566e-07   -2.2380710133361307e-05
3.796636583591158e-06   0.0   -4.37331865543481e-05
3.796636583591158e-06   0.0   -4.37331865543481e-05
3.796636583591158e-06   0.0   -4.37331865543481e-05
3.796636583591158e-06   0.0   -4.37331865543481e-05
2.9625740450809748e-05   -1.649560513514479e-06   -1.6744164170923886e-06
2.9625740450809748e-05   -1.649560513514479e-06   -1.6744164170923886e-06
2.9625740450809748e-05   -1.649560513514479e-06   -1.6744164170923886e-06
2.9625740450809748e-05   -1.649560513514479e-06   -1.6744164170923886e-06
3.020300954799334e-05   0.0   -4.2990563441199825e-05
3.020300954799334e-05   0.0   -4.2990563441199825e-05
3.020300954799334e-05   0.0   -4.2990563441199825e-05
3.020300954799334e-05   0.0   -4.2990563441199825e-05
4.367877033093349e-06   -3.3981689860190225e-07   2.7188088946129787e-07
4.367877033093349e-06   -3.3981689860190225e-07   2.7188088946129787e-07
4.367877033093349e-06   -3.3981689860190225e-07   2.7188088946129787e-07
4.367877033093349e-06   -3.3981689860190225e-07   2.7188088946129787e-07
1.699982306579225e-05   6.188525942902323e-07   -2.1356564194105463e-05
1.699982306579225e-05   6.188525942902323e-07   -2.1356564194105463e-05
1.699982306579225e-05   6.188525942902323e-07   -2.1356564194105463e-05
1.699982306579225e-05   6.188525942902323e-07   -2.1356564194105463e-05
2.9692468548143426e-05   0.0   -4.5131991057947085e-05
2.9692468548143426e-05   0.0   -4.5131991057947085e-05
2.9692468548143426e-05   0.0   -4.5131991057947085e-05
2.9692468548143426e-05   0.0   -4.5131991057947085e-05
6.705738513660466e-05   -8.831333522783133e-06   1.1844069809151966e-05
6.705738513660466e-05   -8.831333522783133e-06   1.1844069809151966e-05
6.705738513660466e-05   -8.831333522783133e-06   1.1844069809151966e-05
6.705738513660466e-05   -8.831333522783133e-06   1.1844069809151966e-05
6.298320852316053e-05   0.0   -4.9877863288274786e-05
6.298320852316053e-05   0.0   -4.9877863288274786e-05
6.298320852316053e-05   0.0   -4.9877863288274786e-05
6.298320852316053e-05   0.0   -4.9877863288274786e-05
2.974950275252181e-05   -7.51182218046526e-06   1.0018739637735483e-05
2.974950275252181e-05   -7.51182218046526e-06   1.0018739637735483e-05
2.974950275252181e-05   -7.51182218046526e-06   1.0018739637735483e-05
2.974950275252181e-05   -7.51182218046526e-06   1.0018739637735483e-05
4.633783853565198e-05   -3.954893525273089e-06   -1.976264386059666e-05
4.633783853565198e-05   -3.954893525273089e-06   -1.976264386059666e-05
4.633783853565198e-05   -3.954893525273089e-06   -1.976264386059666e-05
4.633783853565198e-05   -3.954893525273089e-06   -1.976264386059666e-05
2.9749502752521833e-05   0.0   -4.537076997999558e-05
2.9749502752521833e-05   0.0   -4.537076997999558e-05
2.9749502752521833e-05   0.0   -4.537076997999558e-05
2.9749502752521833e-05   0.0   -4.537076997999558e-05
6.298320852316053e-05   -7.511822180465274e-06   5.511646329456327e-06
6.298320852316053e-05   -7.511822180465274e-06   5.511646329456327e-06
6.298320852316053e-05   -7.511822180465274e-06   5.511646329456327e-06
6.298320852316053e-05   -7.511822180465274e-06   5.511646329456327e-06
6.110609167844532e-05   0.0   -4.884091523118448e-05
6.110609167844532e-05   0.0   -4.884091523118448e-05
6.110609167844532e-05   0.0   -4.884091523118448e-05
6.110609167844532e-05   0.0   -4.884091523118448e-05
2.9625740450809748e-05   -6.863320614546134e-06   7.744329183602393e-06
2.9625740450809748e-05   -6.863320614546134e-06   7.744329183602393e-06
2.9625740450809748e-05   -6.863320614546134e-06   7.744329183602393e-06
2.9625740450809748e-05   -6.863320614546134e-06   7.744329183602393e-06
4.5427797215483566e-05   -2.891787709324048e-06   -2.0975351833987127e-05
4.5427797215483566e-05   -2.891787709324048e-06   -2.0975351833987127e-05
4.5427797215483566e-05   -2.891787709324048e-06   -2.0975351833987127e-05
4.5427797215483566e-05   -2.891787709324048e-06   -2.0975351833987127e-05
2.96257404508098e-05   0.0   -4.4722922862456786e-05
2.96257404508098e-05   0.0   -4.4722922862456786e-05
2.96257404508098e-05   0.0   -4.4722922862456786e-05
2.96257404508098e-05   0.0   -4.4722922862456786e-05
6.110609167844521e-05   -6.863320614546134e-06   3.6263368148747193e-06
6.110609167844521e-05   -6.863320614546134e-06   3.6263368148747193e-06
6.110609167844521e-05   -6.863320614546134e-06   3.6263368148747193e-06
6.110609167844521e-05   -6.863320614546134e-06   3.6263368148747193e-06
5.830904119643018e-05   0.0   -4.6189588486467626e-05
5.830904119643018e-05   0.0   -4.6189588486467626e-05
5.830904119643018e-05   0.0   -4.6189588486467626e-05
5.830904119643018e-05   0.0   -4.6189588486467626e-05
3.0203009547993257e-05   -5.331708408779656e-06   3.852822639528271e-06
3.0203009547993257e-05   -5.331708408779656e-06   3.852822639528271e-06
3.0203009547993257e-05   -5.331708408779656e-06   3.852822639528271e-06
3.0203009547993257e-05   -5.331708408779656e-06   3.852822639528271e-06
4.3967390823619914e-05   -1.2222213533423696e-06   -2.155350505311184e-05
4.3967390823619914e-05   -1.2222213533423696e-06   -2.155350505311184e-05
4.3967390823619914e-05   -1.2222213533423696e-06   -2.155350505311184e-05
4.3967390823619914e-05   -1.2222213533423696e-06   -2.155350505311184e-05
-6.555275043412665e-05   8.367793695234776e-06   -4.30459642123533e-05
-6.555275043412665e-05   8.367793695234776e-06   -4.30459642123533e-05
-6.555275043412665e-05   8.367793695234776e-06   -4.30459642123533e-05
-6.555275043412665e-05   8.367793695234776e-06   -4.30459642123533e-05