<?xml version="1.0"?> 
<VTKFile type="UnstructuredGrid"> 
   <UnstructuredGrid> 
      <Piece NumberOfPoints="6000"  NumberOfCells="1500">  
          <Points>  
             <DataArray type="Float64" NumberOfComponents="3" format="ascii">   
-500.0   0.0   0.0
-450.0   0.0   0.0
-500.0   30.0   0.0
-500.0   0.0   16.666666666666668
-450.0   0.0   0.0
-450.0   30.0   0.0
-500.0   30.0   0.0
-450.0   30.0   16.666666666666668
-500.0   0.0   16.666666666666668
-500.0   30.0   16.666666666666668
-450.0   30.0   16.666666666666668
-500.0   30.0   0.0
-500.0   0.0   16.666666666666668
-450.0   30.0   16.666666666666668
-450.0   0.0   16.666666666666668
-450.0   0.0   0.0
-500.0   0.0   16.666666666666668
-450.0   30.0   16.666666666666668
-450.0   0.0   0.0
-500.0   30.0   0.0
-500.0   0.0   16.666666666666668
-450.0   0.0   16.666666666666668
-500.0   30.0   16.666666666666668
-500.0   0.0   33.333333333333336
-450.0   0.0   16.666666666666668
-450.0   30.0   16.666666666666668
-500.0   30.0   16.666666666666668
-450.0   30.0   33.333333333333336
-500.0   0.0   33.333333333333336
-500.0   30.0   33.333333333333336
-450.0   30.0   33.333333333333336
-500.0   30.0   16.666666666666668
-500.0   0.0   33.333333333333336
-450.0   30.0   33.333333333333336
-450.0   0.0   33.333333333333336
-450.0   0.0   16.666666666666668
-500.0   0.0   33.333333333333336
-450.0   30.0   33.333333333333336
-450.0   0.0   16.666666666666668
-500.0   30.0   16.666666666666668
-500.0   0.0   33.333333333333336
-450.0   0.0   33.333333333333336
-500.0   30.0   33.333333333333336
-500.0   0.0   50.0
-450.0   0.0   33.333333333333336
-450.0   30.0   33.333333333333336
-500.0   30.0   33.333333333333336
-450.0   30.0   50.0
-500.0   0.0   50.0
-500.0   30.0   50.0
-450.0   30.0   50.0
-500.0   30.0   33.333333333333336
-500.0   0.0   50.0
-450.0   30.0   50.0
-450.0   0.0   50.0
-450.0   0.0   33.333333333333336
-500.0   0.0   50.0
-450.0   30.0   50.0
-450.0   0.0   33.333333333333336
-500.0   30.0   33.333333333333336
-500.0   30.0   0.0
-450.0   30.0   0.0
-500.0   60.0   0.0
-500.0   30.0   16.666666666666668
-450.0   30.0   0.0
-450.0   60.0   0.0
-500.0   60.0   0.0
-450.0   60.0   16.666666666666668
-500.0   30.0   16.666666666666668
-500.0   60.0   16.666666666666668
-450.0   60.0   16.666666666666668
-500.0   60.0   0.0
-500.0   30.0   16.666666666666668
-450.0   60.0   16.666666666666668
-450.0   30.0   16.666666666666668
-450.0   30.0   0.0
-500.0   30.0   16.666666666666668
-450.0   60.0   16.666666666666668
-450.0   30.0   0.0
-500.0   60.0   0.0
-500.0   30.0   16.666666666666668
-450.0   30.0   16.666666666666668
-500.0   60.0   16.666666666666668
-500.0   30.0   33.333333333333336
-450.0   30.0   16.666666666666668
-450.0   60.0   16.666666666666668
-500.0   60.0   16.666666666666668
-450.0   60.0   33.333333333333336
-500.0   30.0   33.333333333333336
-500.0   60.0   33.333333333333336
-450.0   60.0   33.333333333333336
-500.0   60.0   16.666666666666668
-500.0   30.0   33.333333333333336
-450.0   60.0   33.333333333333336
-450.0   30.0   33.333333333333336
-450.0   30.0   16.666666666666668
-500.0   30.0   33.333333333333336
-450.0   60.0   33.333333333333336
-450.0   30.0   16.666666666666668
-500.0   60.0   16.666666666666668
-500.0   30.0   33.333333333333336
-450.0   30.0   33.333333333333336
-500.0   60.0   33.333333333333336
-500.0   30.0   50.0
-450.0   30.0   33.333333333333336
-450.0   60.0   33.333333333333336
-500.0   60.0   33.333333333333336
-450.0   60.0   50.0
-500.0   30.0   50.0
-500.0   60.0   50.0
-450.0   60.0   50.0
-500.0   60.0   33.333333333333336
-500.0   30.0   50.0
-450.0   60.0   50.0
-450.0   30.0   50.0
-450.0   30.0   33.333333333333336
-500.0   30.0   50.0
-450.0   60.0   50.0
-450.0   30.0   33.333333333333336
-500.0   60.0   33.333333333333336
-500.0   60.0   0.0
-450.0   60.0   0.0
-500.0   90.0   0.0
-500.0   60.0   16.666666666666668
-450.0   60.0   0.0
-450.0   90.0   0.0
-500.0   90.0   0.0
-450.0   90.0   16.666666666666668
-500.0   60.0   16.666666666666668
-500.0   90.0   16.666666666666668
-450.0   90.0   16.666666666666668
-500.0   90.0   0.0
-500.0   60.0   16.666666666666668
-450.0   90.0   16.666666666666668
-450.0   60.0   16.666666666666668
-450.0   60.0   0.0
-500.0   60.0   16.666666666666668
-450.0   90.0   16.666666666666668
-450.0   60.0   0.0
-500.0   90.0   0.0
-500.0   60.0   16.666666666666668
-450.0   60.0   16.666666666666668
-500.0   90.0   16.666666666666668
-500.0   60.0   33.333333333333336
-450.0   60.0   16.666666666666668
-450.0   90.0   16.666666666666668
-500.0   90.0   16.666666666666668
-450.0   90.0   33.333333333333336
-500.0   60.0   33.333333333333336
-500.0   90.0   33.333333333333336
-450.0   90.0   33.333333333333336
-500.0   90.0   16.666666666666668
-500.0   60.0   33.333333333333336
-450.0   90.0   33.333333333333336
-450.0   60.0   33.333333333333336
-450.0   60.0   16.666666666666668
-500.0   60.0   33.333333333333336
-450.0   90.0   33.333333333333336
-450.0   60.0   16.666666666666668
-500.0   90.0   16.666666666666668
-500.0   60.0   33.333333333333336
-450.0   60.0   33.333333333333336
-500.0   90.0   33.333333333333336
-500.0   60.0   50.0
-450.0   60.0   33.333333333333336
-450.0   90.0   33.333333333333336
-500.0   90.0   33.333333333333336
-450.0   90.0   50.0
-500.0   60.0   50.0
-500.0   90.0   50.0
-450.0   90.0   50.0
-500.0   90.0   33.333333333333336
-500.0   60.0   50.0
-450.0   90.0   50.0
-450.0   60.0   50.0
-450.0   60.0   33.333333333333336
-500.0   60.0   50.0
-450.0   90.0   50.0
-450.0   60.0   33.333333333333336
-500.0   90.0   33.333333333333336
-500.0   90.0   0.0
-450.0   90.0   0.0
-500.0   120.0   0.0
-500.0   90.0   16.666666666666668
-450.0   90.0   0.0
-450.0   120.0   0.0
-500.0   120.0   0.0
-450.0   120.0   16.666666666666668
-500.0   90.0   16.666666666666668
-500.0   120.0   16.666666666666668
-450.0   120.0   16.666666666666668
-500.0   120.0   0.0
-500.0   90.0   16.666666666666668
-450.0   120.0   16.666666666666668
-450.0   90.0   16.666666666666668
-450.0   90.0   0.0
-500.0   90.0   16.666666666666668
-450.0   120.0   16.666666666666668
-450.0   90.0   0.0
-500.0   120.0   0.0
-500.0   90.0   16.666666666666668
-450.0   90.0   16.666666666666668
-500.0   120.0   16.666666666666668
-500.0   90.0   33.333333333333336
-450.0   90.0   16.666666666666668
-450.0   120.0   16.666666666666668
-500.0   120.0   16.666666666666668
-450.0   120.0   33.333333333333336
-500.0   90.0   33.333333333333336
-500.0   120.0   33.333333333333336
-450.0   120.0   33.333333333333336
-500.0   120.0   16.666666666666668
-500.0   90.0   33.333333333333336
-450.0   120.0   33.333333333333336
-450.0   90.0   33.333333333333336
-450.0   90.0   16.666666666666668
-500.0   90.0   33.333333333333336
-450.0   120.0   33.333333333333336
-450.0   90.0   16.666666666666668
-500.0   120.0   16.666666666666668
-500.0   90.0   33.333333333333336
-450.0   90.0   33.333333333333336
-500.0   120.0   33.333333333333336
-500.0   90.0   50.0
-450.0   90.0   33.333333333333336
-450.0   120.0   33.333333333333336
-500.0   120.0   33.333333333333336
-450.0   120.0   50.0
-500.0   90.0   50.0
-500.0   120.0   50.0
-450.0   120.0   50.0
-500.0   120.0   33.333333333333336
-500.0   90.0   50.0
-450.0   120.0   50.0
-450.0   90.0   50.0
-450.0   90.0   33.333333333333336
-500.0   90.0   50.0
-450.0   120.0   50.0
-450.0   90.0   33.333333333333336
-500.0   120.0   33.333333333333336
-500.0   120.0   0.0
-450.0   120.0   0.0
-500.0   150.0   0.0
-500.0   120.0   16.666666666666668
-450.0   120.0   0.0
-450.0   150.0   0.0
-500.0   150.0   0.0
-450.0   150.0   16.666666666666668
-500.0   120.0   16.666666666666668
-500.0   150.0   16.666666666666668
-450.0   150.0   16.666666666666668
-500.0   150.0   0.0
-500.0   120.0   16.666666666666668
-450.0   150.0   16.666666666666668
-450.0   120.0   16.666666666666668
-450.0   120.0   0.0
-500.0   120.0   16.666666666666668
-450.0   150.0   16.666666666666668
-450.0   120.0   0.0
-500.0   150.0   0.0
-500.0   120.0   16.666666666666668
-450.0   120.0   16.666666666666668
-500.0   150.0   16.666666666666668
-500.0   120.0   33.333333333333336
-450.0   120.0   16.666666666666668
-450.0   150.0   16.666666666666668
-500.0   150.0   16.666666666666668
-450.0   150.0   33.333333333333336
-500.0   120.0   33.333333333333336
-500.0   150.0   33.333333333333336
-450.0   150.0   33.333333333333336
-500.0   150.0   16.666666666666668
-500.0   120.0   33.333333333333336
-450.0   150.0   33.333333333333336
-450.0   120.0   33.333333333333336
-450.0   120.0   16.666666666666668
-500.0   120.0   33.333333333333336
-450.0   150.0   33.333333333333336
-450.0   120.0   16.666666666666668
-500.0   150.0   16.666666666666668
-500.0   120.0   33.333333333333336
-450.0   120.0   33.333333333333336
-500.0   150.0   33.333333333333336
-500.0   120.0   50.0
-450.0   120.0   33.333333333333336
-450.0   150.0   33.333333333333336
-500.0   150.0   33.333333333333336
-450.0   150.0   50.0
-500.0   120.0   50.0
-500.0   150.0   50.0
-450.0   150.0   50.0
-500.0   150.0   33.333333333333336
-500.0   120.0   50.0
-450.0   150.0   50.0
-450.0   120.0   50.0
-450.0   120.0   33.333333333333336
-500.0   120.0   50.0
-450.0   150.0   50.0
-450.0   120.0   33.333333333333336
-500.0   150.0   33.333333333333336
-450.0   0.0   0.0
-400.0   0.0   0.0
-450.0   30.0   0.0
-450.0   0.0   16.666666666666668
-400.0   0.0   0.0
-400.0   30.0   0.0
-450.0   30.0   0.0
-400.0   30.0   16.666666666666668
-450.0   0.0   16.666666666666668
-450.0   30.0   16.666666666666668
-400.0   30.0   16.666666666666668
-450.0   30.0   0.0
-450.0   0.0   16.666666666666668
-400.0   30.0   16.666666666666668
-400.0   0.0   16.666666666666668
-400.0   0.0   0.0
-450.0   0.0   16.666666666666668
-400.0   30.0   16.666666666666668
-400.0   0.0   0.0
-450.0   30.0   0.0
-450.0   0.0   16.666666666666668
-400.0   0.0   16.666666666666668
-450.0   30.0   16.666666666666668
[...]
          <PointData>  
             <DataArray type="Float64" NumberOfComponents="3" Name="Strains" format="ascii">   
-0.00012566627725338057   0.0   -8.238872985366326e-05
-0.00012566627725338057   0.0   -8.238872985366326e-05
-0.00012566627725338057   0.0   -8.238872985366326e-05
-0.00012566627725338057   0.0   -8.238872985366326e-05
-7.997242082077933e-05   1.3932860892949649e-05   2.127414069775065e-06
-7.997242082077933e-05   1.3932860892949649e-05   2.127414069775065e-06
-7.997242082077933e-05   1.3932860892949649e-05   2.127414069775065e-06
-7.997242082077933e-05   1.3932860892949649e-05   2.127414069775065e-06
-7.839695842424538e-05   0.0   -7.774734525314232e-05
-7.839695842424538e-05   0.0   -7.774734525314232e-05
-7.839695842424538e-05   0.0   -7.774734525314232e-05
-7.839695842424538e-05   0.0   -7.774734525314232e-05
-0.0001315232909270116   1.6714681082323626e-05   7.677336020742306e-07
-0.0001315232909270116   1.6714681082323626e-05   7.677336020742306e-07
-0.0001315232909270116   1.6714681082323626e-05   7.677336020742306e-07
-0.0001315232909270116   1.6714681082323626e-05   7.677336020742306e-07
-0.00010203161783881278   3.867820500434111e-06   -4.067693852912337e-05
-0.00010203161783881278   3.867820500434111e-06   -4.067693852912337e-05
-0.00010203161783881278   3.867820500434111e-06   -4.067693852912337e-05
-0.00010203161783881278   3.867820500434111e-06   -4.067693852912337e-05
-0.00013152329092701185   0.0   -8.777615390253652e-05
-0.00013152329092701185   0.0   -8.777615390253652e-05
-0.00013152329092701185   0.0   -8.777615390253652e-05
-0.00013152329092701185   0.0   -8.777615390253652e-05
-7.839695842424538e-05   1.6714681082323653e-05   1.0796542251468428e-05
-7.839695842424538e-05   1.6714681082323653e-05   1.0796542251468428e-05
-7.839695842424538e-05   1.6714681082323653e-05   1.0796542251468428e-05
-7.839695842424538e-05   1.6714681082323653e-05   1.0796542251468428e-05
-7.862468381293244e-05   0.0   -7.965211219230607e-05
-7.862468381293244e-05   0.0   -7.965211219230607e-05
-7.862468381293244e-05   0.0   -7.965211219230607e-05
-7.862468381293244e-05   0.0   -7.965211219230607e-05
-0.00013563965890357393   1.7905773259718625e-05   4.629382336265593e-06
-0.00013563965890357393   1.7905773259718625e-05   4.629382336265593e-06
-0.00013563965890357393   1.7905773259718625e-05   4.629382336265593e-06
-0.00013563965890357393   1.7905773259718625e-05   4.629382336265593e-06
-0.00010507398736997196   6.770034758525368e-06   -3.9631960452355025e-05
-0.00010507398736997196   6.770034758525368e-06   -3.9631960452355025e-05
-0.00010507398736997196   6.770034758525368e-06   -3.9631960452355025e-05
-0.00010507398736997196   6.770034758525368e-06   -3.9631960452355025e-05
-0.00013563965890357418   0.0   -9.039557614813727e-05
-0.00013563965890357418   0.0   -9.039557614813727e-05
-0.00013563965890357418   0.0   -9.039557614813727e-05
-0.00013563965890357418   0.0   -9.039557614813727e-05
-7.86246838129323e-05   1.7905773259718625e-05   1.53728462920968e-05
-7.86246838129323e-05   1.7905773259718625e-05   1.53728462920968e-05
-7.86246838129323e-05   1.7905773259718625e-05   1.53728462920968e-05
-7.86246838129323e-05   1.7905773259718625e-05   1.53728462920968e-05
-7.859083316390911e-05   0.0   -8.014051551688714e-05
-7.859083316390911e-05   0.0   -8.014051551688714e-05
-7.859083316390911e-05   0.0   -8.014051551688714e-05
-7.859083316390911e-05   0.0   -8.014051551688714e-05
-0.00014450086792641213   2.0393697999185638e-05   1.7473323621106855e-05
-0.00014450086792641213   2.0393697999185638e-05   1.7473323621106855e-05
-0.00014450086792641213   2.0393697999185638e-05   1.7473323621106855e-05
-0.00014450086792641213   2.0393697999185638e-05   1.7473323621106855e-05
-0.00010711524603374146   8.5458838593751e-06   -3.7727357716124564e-05
-0.00010711524603374146   8.5458838593751e-06   -3.7727357716124564e-05
-0.00010711524603374146   8.5458838593751e-06   -3.7727357716124564e-05
-0.00010711524603374146   8.5458838593751e-06   -3.7727357716124564e-05
-7.997242082077948e-05   0.0   -7.402901331789345e-05
-7.997242082077948e-05   0.0   -7.402901331789345e-05
-7.997242082077948e-05   0.0   -7.402901331789345e-05
-7.997242082077948e-05   0.0   -7.402901331789345e-05
-3.641220336714089e-05   5.112234174994609e-06   1.6386896098342232e-06
-3.641220336714089e-05   5.112234174994609e-06   1.6386896098342232e-06
-3.641220336714089e-05   5.112234174994609e-06   1.6386896098342232e-06
-3.641220336714089e-05   5.112234174994609e-06   1.6386896098342232e-06
-3.502720595829065e-05   0.0   -7.338266513899505e-05
-3.502720595829065e-05   0.0   -7.338266513899505e-05
-3.502720595829065e-05   0.0   -7.338266513899505e-05
-3.502720595829065e-05   0.0   -7.338266513899505e-05
-7.839695842424538e-05   7.274466856911892e-06   -5.464424476551213e-06
-7.839695842424538e-05   7.274466856911892e-06   -5.464424476551213e-06
-7.839695842424538e-05   7.274466856911892e-06   -5.464424476551213e-06
-7.839695842424538e-05   7.274466856911892e-06   -5.464424476551213e-06
-5.749981338953499e-05   5.38623482415233e-07   -3.625149350970358e-05
-5.749981338953499e-05   5.38623482415233e-07   -3.625149350970358e-05
-5.749981338953499e-05   5.38623482415233e-07   -3.625149350970358e-05
-5.749981338953499e-05   5.38623482415233e-07   -3.625149350970358e-05
-7.839695842424531e-05   0.0   -7.774734525314225e-05
-7.839695842424531e-05   0.0   -7.774734525314225e-05
-7.839695842424531e-05   0.0   -7.774734525314225e-05
-7.839695842424531e-05   0.0   -7.774734525314225e-05
-3.502720595829065e-05   7.274466856911892e-06   -1.0997443624040758e-06
-3.502720595829065e-05   7.274466856911892e-06   -1.0997443624040758e-06
-3.502720595829065e-05   7.274466856911892e-06   -1.0997443624040758e-06
-3.502720595829065e-05   7.274466856911892e-06   -1.0997443624040758e-06
-3.4252059802798574e-05   0.0   -7.43051870893703e-05
-3.4252059802798574e-05   0.0   -7.43051870893703e-05
-3.4252059802798574e-05   0.0   -7.43051870893703e-05
-3.4252059802798574e-05   0.0   -7.43051870893703e-05
-7.862468381293244e-05   8.911541838226071e-06   -5.697738842083092e-06
-7.862468381293244e-05   8.911541838226071e-06   -5.697738842083092e-06
-7.862468381293244e-05   8.911541838226071e-06   -5.697738842083092e-06
-7.862468381293244e-05   8.911541838226071e-06   -5.697738842083092e-06
-5.6324509113521894e-05   2.8684651364765766e-06   -3.9238850653383954e-05
-5.6324509113521894e-05   2.8684651364765766e-06   -3.9238850653383954e-05
-5.6324509113521894e-05   2.8684651364765766e-06   -3.9238850653383954e-05
-5.6324509113521894e-05   2.8684651364765766e-06   -3.9238850653383954e-05
-7.862468381293244e-05   0.0   -7.965211219230607e-05
-7.862468381293244e-05   0.0   -7.965211219230607e-05
-7.862468381293244e-05   0.0   -7.965211219230607e-05
-7.862468381293244e-05   0.0   -7.965211219230607e-05
-3.4252059802798635e-05   8.911541838226071e-06   -3.508137391474304e-07
-3.4252059802798635e-05   8.911541838226071e-06   -3.508137391474304e-07
-3.4252059802798635e-05   8.911541838226071e-06   -3.508137391474304e-07
-3.4252059802798635e-05   8.911541838226071e-06   -3.508137391474304e-07
-3.3547324096918434e-05   0.0   -7.391968799241069e-05
-3.3547324096918434e-05   0.0   -7.391968799241069e-05
-3.3547324096918434e-05   0.0   -7.391968799241069e-05
-3.3547324096918434e-05   0.0   -7.391968799241069e-05
-7.859083316390891e-05   1.0368045874127298e-05   -5.068000405235984e-06
-7.859083316390891e-05   1.0368045874127298e-05   -5.068000405235984e-06
-7.859083316390891e-05   1.0368045874127298e-05   -5.068000405235984e-06
-7.859083316390891e-05   1.0368045874127298e-05   -5.068000405235984e-06
-5.6086003954925415e-05   4.777020166579424e-06   -3.922143366234672e-05
-5.6086003954925415e-05   4.777020166579424e-06   -3.922143366234672e-05
-5.6086003954925415e-05   4.777020166579424e-06   -3.922143366234672e-05
-5.6086003954925415e-05   4.777020166579424e-06   -3.922143366234672e-05
-3.6412203367140954e-05   0.0   -7.096167281289669e-05
-3.6412203367140954e-05   0.0   -7.096167281289669e-05
-3.6412203367140954e-05   0.0   -7.096167281289669e-05
-3.6412203367140954e-05   0.0   -7.096167281289669e-05
4.749687099944906e-06   -6.532899665077636e-07   -2.7504960143248425e-06
4.749687099944906e-06   -6.532899665077636e-07   -2.7504960143248425e-06
4.749687099944906e-06   -6.532899665077636e-07   -2.7504960143248425e-06
4.749687099944906e-06   -6.532899665077636e-07   -2.7504960143248425e-06
5.630654315927246e-06   0.0   -7.260930740041135e-05
5.630654315927246e-06   0.0   -7.260930740041135e-05
5.630654315927246e-06   0.0   -7.260930740041135e-05
5.630654315927246e-06   0.0   -7.260930740041135e-05
-3.502720595829065e-05   1.2889295643059463e-06   -5.619564681965217e-06
-3.502720595829065e-05   1.2889295643059463e-06   -5.619564681965217e-06
-3.502720595829065e-05   1.2889295643059463e-06   -5.619564681965217e-06
-3.502720595829065e-05   1.2889295643059463e-06   -5.619564681965217e-06
-1.5390774525606818e-05   -1.3730288229290986e-06   -3.6749775370763875e-05
-1.5390774525606818e-05   -1.3730288229290986e-06   -3.6749775370763875e-05
-1.5390774525606818e-05   -1.3730288229290986e-06   -3.6749775370763875e-05
-1.5390774525606818e-05   -1.3730288229290986e-06   -3.6749775370763875e-05
-3.5027205958290714e-05   0.0   -7.338266513899517e-05
-3.5027205958290714e-05   0.0   -7.338266513899517e-05
-3.5027205958290714e-05   0.0   -7.338266513899517e-05
-3.5027205958290714e-05   0.0   -7.338266513899517e-05
5.630654315927255e-06   1.2889295643059463e-06   -4.8462069433816415e-06
5.630654315927255e-06   1.2889295643059463e-06   -4.8462069433816415e-06
5.630654315927255e-06   1.2889295643059463e-06   -4.8462069433816415e-06
5.630654315927255e-06   1.2889295643059463e-06   -4.8462069433816415e-06
6.325092892862619e-06   0.0   -7.250593813483552e-05
6.325092892862619e-06   0.0   -7.250593813483552e-05
6.325092892862619e-06   0.0   -7.250593813483552e-05
6.325092892862619e-06   0.0   -7.250593813483552e-05
-3.425205980279852e-05   2.9987482575579523e-06   -6.676599263268303e-06
-3.425205980279852e-05   2.9987482575579523e-06   -6.676599263268303e-06
-3.425205980279852e-05   2.9987482575579523e-06   -6.676599263268303e-06
-3.425205980279852e-05   2.9987482575579523e-06   -6.676599263268303e-06
-1.4351056532714017e-05   7.306058367996066e-07   -3.848405259428754e-05
-1.4351056532714017e-05   7.306058367996066e-07   -3.848405259428754e-05
-1.4351056532714017e-05   7.306058367996066e-07   -3.848405259428754e-05
-1.4351056532714017e-05   7.306058367996066e-07   -3.848405259428754e-05
-3.4252059802798635e-05   0.0   -7.430518708937042e-05
-3.4252059802798635e-05   0.0   -7.430518708937042e-05
-3.4252059802798635e-05   0.0   -7.430518708937042e-05
-3.4252059802798635e-05   0.0   -7.430518708937042e-05
6.32509289286263e-06   2.998748257557966e-06   -4.877350308733543e-06
6.32509289286263e-06   2.998748257557966e-06   -4.877350308733543e-06
6.32509289286263e-06   2.998748257557966e-06   -4.877350308733543e-06
6.32509289286263e-06   2.998748257557966e-06   -4.877350308733543e-06
7.2616648798094675e-06   0.0   -7.093195895802341e-05
7.2616648798094675e-06   0.0   -7.093195895802341e-05
7.2616648798094675e-06   0.0   -7.093195895802341e-05
7.2616648798094675e-06   0.0   -7.093195895802341e-05
-3.3547324096918406e-05   4.979548390645361e-06   -5.9047063645308484e-06
-3.3547324096918406e-05   4.979548390645361e-06   -5.9047063645308484e-06
-3.3547324096918406e-05   4.979548390645361e-06   -5.9047063645308484e-06
-3.3547324096918406e-05   4.979548390645361e-06   -5.9047063645308484e-06
-1.3495197461494554e-05   2.8110234427890755e-06   -3.802380245485679e-05
-1.3495197461494554e-05   2.8110234427890755e-06   -3.802380245485679e-05
-1.3495197461494554e-05   2.8110234427890755e-06   -3.802380245485679e-05
-1.3495197461494554e-05   2.8110234427890755e-06   -3.802380245485679e-05
4.749687099944915e-06   0.0   -7.135364679280134e-05
4.749687099944915e-06   0.0   -7.135364679280134e-05
4.749687099944915e-06   0.0   -7.135364679280134e-05
4.749687099944915e-06   0.0   -7.135364679280134e-05
4.942465396977e-05   -5.7969721387496505e-06   -3.735519596756562e-07
4.942465396977e-05   -5.7969721387496505e-06   -3.735519596756562e-07
4.942465396977e-05   -5.7969721387496505e-06   -3.735519596756562e-07
4.942465396977e-05   -5.7969721387496505e-06   -3.735519596756562e-07
4.950345281438499e-05   0.0   -7.523251895698967e-05
4.950345281438499e-05   0.0   -7.523251895698967e-05
4.950345281438499e-05   0.0   -7.523251895698967e-05
4.950345281438499e-05   0.0   -7.523251895698967e-05
5.630654315927255e-06   -4.3720192609634346e-06   5.120234303512696e-07
5.630654315927255e-06   -4.3720192609634346e-06   5.120234303512696e-07
5.630654315927255e-06   -4.3720192609634346e-06   5.120234303512696e-07
5.630654315927255e-06   -4.3720192609634346e-06   5.120234303512696e-07
2.712656995716495e-05   -3.2323934701569476e-06   -3.599827811286209e-05
2.712656995716495e-05   -3.2323934701569476e-06   -3.599827811286209e-05
2.712656995716495e-05   -3.2323934701569476e-06   -3.599827811286209e-05
2.712656995716495e-05   -3.2323934701569476e-06   -3.599827811286209e-05
5.630654315927265e-06   0.0   -7.260930740041161e-05
5.630654315927265e-06   0.0   -7.260930740041161e-05
5.630654315927265e-06   0.0   -7.260930740041161e-05
5.630654315927265e-06   0.0   -7.260930740041161e-05
4.950345281438491e-05   -4.3720192609634346e-06   -2.1111881262267894e-06
4.950345281438491e-05   -4.3720192609634346e-06   -2.1111881262267894e-06
4.950345281438491e-05   -4.3720192609634346e-06   -2.1111881262267894e-06
4.950345281438491e-05   -4.3720192609634346e-06   -2.1111881262267894e-06
4.928360612748653e-05   0.0   -7.415816189459821e-05
4.928360612748653e-05   0.0   -7.415816189459821e-05
4.928360612748653e-05   0.0   -7.415816189459821e-05
4.928360612748653e-05   0.0   -7.415816189459821e-05
6.32509289286263e-06   -2.7537062662709363e-06   -9.084160771291584e-07
6.32509289286263e-06   -2.7537062662709363e-06   -9.084160771291584e-07
6.32509289286263e-06   -2.7537062662709363e-06   -9.084160771291584e-07
6.32509289286263e-06   -2.7537062662709363e-06   -9.084160771291584e-07
2.7457130221706897e-05   -1.2907120784888347e-06   -3.7006274804538836e-05
2.7457130221706897e-05   -1.2907120784888347e-06   -3.7006274804538836e-05
2.7457130221706897e-05   -1.2907120784888347e-06   -3.7006274804538836e-05
2.7457130221706897e-05   -1.2907120784888347e-06   -3.7006274804538836e-05
6.32509289286263e-06   0.0   -7.250593813483564e-05
6.32509289286263e-06   0.0   -7.250593813483564e-05
6.32509289286263e-06   0.0   -7.250593813483564e-05
6.32509289286263e-06   0.0   -7.250593813483564e-05
4.928360612748644e-05   -2.7537062662709363e-06   -2.5606398368917103e-06
4.928360612748644e-05   -2.7537062662709363e-06   -2.5606398368917103e-06
4.928360612748644e-05   -2.7537062662709363e-06   -2.5606398368917103e-06
4.928360612748644e-05   -2.7537062662709363e-06   -2.5606398368917103e-06
5.0230557136317744e-05   0.0   -7.127910561240412e-05
5.0230557136317744e-05   0.0   -7.127910561240412e-05
5.0230557136317744e-05   0.0   -7.127910561240412e-05
5.0230557136317744e-05   0.0   -7.127910561240412e-05
7.26166487980948e-06   -5.785777573009791e-07   6.828614694902319e-07
7.26166487980948e-06   -5.785777573009791e-07   6.828614694902319e-07
7.26166487980948e-06   -5.785777573009791e-07   6.828614694902319e-07
7.26166487980948e-06   -5.785777573009791e-07   6.828614694902319e-07
2.8277825014590187e-05   1.0223604353596098e-06   -3.530463500407393e-05
2.8277825014590187e-05   1.0223604353596098e-06   -3.530463500407393e-05
2.8277825014590187e-05   1.0223604353596098e-06   -3.530463500407393e-05
2.8277825014590187e-05   1.0223604353596098e-06   -3.530463500407393e-05
4.9424653969770176e-05   0.0   -7.483183007605114e-05
4.9424653969770176e-05   0.0   -7.483183007605114e-05
4.9424653969770176e-05   0.0   -7.483183007605114e-05
4.9424653969770176e-05   0.0   -7.483183007605114e-05
0.00011153517017766374   -1.4689184772363853e-05   1.9872186073686856e-05
0.00011153517017766374   -1.4689184772363853e-05   1.9872186073686856e-05
0.00011153517017766374   -1.4689184772363853e-05   1.9872186073686856e-05
0.00011153517017766374   -1.4689184772363853e-05   1.9872186073686856e-05
0.00010473772147075137   0.0   -8.273429378856777e-05
0.00010473772147075137   0.0   -8.273429378856777e-05
0.00010473772147075137   0.0   -8.273429378856777e-05
0.00010473772147075137   0.0   -8.273429378856777e-05
4.950345281438491e-05   -1.2502958052630159e-05   1.682459547028758e-05
4.950345281438491e-05   -1.2502958052630159e-05   1.682459547028758e-05
4.950345281438491e-05   -1.2502958052630159e-05   1.682459547028758e-05
4.950345281438491e-05   -1.2502958052630159e-05   1.682459547028758e-05
7.708118772026078e-05   -6.5853864270972086e-06   -3.2688839014825094e-05
7.708118772026078e-05   -6.5853864270972086e-06   -3.2688839014825094e-05
7.708118772026078e-05   -6.5853864270972086e-06   -3.2688839014825094e-05
7.708118772026078e-05   -6.5853864270972086e-06   -3.2688839014825094e-05
4.950345281438495e-05   0.0   -7.52325189569896e-05
4.950345281438495e-05   0.0   -7.52325189569896e-05
4.950345281438495e-05   0.0   -7.52325189569896e-05
4.950345281438495e-05   0.0   -7.52325189569896e-05
0.00010473772147075137   -1.2502958052630159e-05   9.322820638709524e-06
0.00010473772147075137   -1.2502958052630159e-05   9.322820638709524e-06
0.00010473772147075137   -1.2502958052630159e-05   9.322820638709524e-06
0.00010473772147075137   -1.2502958052630159e-05   9.322820638709524e-06
0.00010159960908630457   0.0   -8.101411670468457e-05
0.00010159960908630457   0.0   -8.101411670468457e-05
0.00010159960908630457   0.0   -8.101411670468457e-05
0.00010159960908630457   0.0   -8.101411670468457e-05
4.928360612748644e-05   -1.142659135014391e-05   1.3035176370098498e-05
4.928360612748644e-05   -1.142659135014391e-05   1.3035176370098498e-05
4.928360612748644e-05   -1.142659135014391e-05   1.3035176370098498e-05
4.928360612748644e-05   -1.142659135014391e-05   1.3035176370098498e-05
7.555153095034473e-05   -4.817998123079079e-06   -3.470985427090408e-05
7.555153095034473e-05   -4.817998123079079e-06   -3.470985427090408e-05
7.555153095034473e-05   -4.817998123079079e-06   -3.470985427090408e-05
7.555153095034473e-05   -4.817998123079079e-06   -3.470985427090408e-05
4.928360612748653e-05   0.0   -7.415816189459821e-05
4.928360612748653e-05   0.0   -7.415816189459821e-05
4.928360612748653e-05   0.0   -7.415816189459821e-05
4.928360612748653e-05   0.0   -7.415816189459821e-05
0.0001015996090863044   -1.142659135014391e-05   6.179221560012154e-06
0.0001015996090863044   -1.142659135014391e-05   6.179221560012154e-06
0.0001015996090863044   -1.142659135014391e-05   6.179221560012154e-06
0.0001015996090863044   -1.142659135014391e-05   6.179221560012154e-06
9.693331556676136e-05   0.0   -7.661110353884068e-05
9.693331556676136e-05   0.0   -7.661110353884068e-05
9.693331556676136e-05   0.0   -7.661110353884068e-05
9.693331556676136e-05   0.0   -7.661110353884068e-05
5.0230557136317616e-05   -8.88666321072761e-06   6.5588251050019555e-06
5.0230557136317616e-05   -8.88666321072761e-06   6.5588251050019555e-06
5.0230557136317616e-05   -8.88666321072761e-06   6.5588251050019555e-06
5.0230557136317616e-05   -8.88666321072761e-06   6.5588251050019555e-06
7.310846084712381e-05   -2.044118036868741e-06   -3.567654151732365e-05
7.310846084712381e-05   -2.044118036868741e-06   -3.567654151732365e-05
7.310846084712381e-05   -2.044118036868741e-06   -3.567654151732365e-05
7.310846084712381e-05   -2.044118036868741e-06   -3.567654151732365e-05
-0.00010909722178394909   1.3932860892949649e-05   -7.152449729581938e-05
-0.00010909722178394909   1.3932860892949649e-05   -7.152449729581938e-05
-0.00010909722178394909   1.3932860892949649e-05   -7.152449729581938e-05
-0.00010909722178394909   1.3932860892949649e-05   -7.152449729581938e-05