<?xml version="1.0"?> 
<VTKFile type="UnstructuredGrid"> 
   <UnstructuredGrid> 
      <Piece NumberOfPoints="6000"  NumberOfCells="1500">  
          <Points>  
             <DataArray type="Float64" NumberOfComponents="3" format="ascii">   
-500.0   0.0   0.0
-450.0   0.0   0.0
-500.0   30.0   0.0
-500.0   0.0   16.666666666666668
-450.0   0.0   0.0
-450.0   30.0   0.0
-500.0   30.0   0.0
-450.0   30.0   16.666666666666668
-500.0   0.0   16.666666666666668
-500.0   30.0   16.666666666666668
-450.0   30.0   16.666666666666668
-500.0   30.0   0.0
-500.0   0.0   16.666666666666668
-450.0   30.0   16.666666666666668
-450.0   0.0   16.666666666666668
-450.0   0.0   0.0
-500.0   0.0   16.666666666666668
-450.0   30.0   16.666666666666668
-450.0   0.0   0.0
-500.0   30.0   0.0
-500.0   0.0   16.666666666666668
-450.0   0.0   16.666666666666668
-500.0   30.0   16.666666666666668
-500.0   0.0   33.333333333333336
-450.0   0.0   16.666666666666668
-450.0   30.0   16.666666666666668
-500.0   30.0   16.666666666666668
-450.0   30.0   33.333333333333336
-500.0   0.0   33.333333333333336
-500.0   30.0   33.333333333333336
-450.0   30.0   33.333333333333336
-500.0   30.0   16.666666666666668
-500.0   0.0   33.333333333333336
-450.0   30.0   33.333333333333336
-450.0   0.0   33.333333333333336
-450.0   0.0   16.666666666666668
-500.0   0.0   33.333333333333336
-450.0   30.0   33.333333333333336
-450.0   0.0   16.666666666666668
-500.0   30.0   16.666666666666668
-500.0   0.0   33.333333333333336
-450.0   0.0   33.333333333333336
-500.0   30.0   33.333333333333336
-500.0   0.0   50.0
-450.0   0.0   33.333333333333336
-450.0   30.0   33.333333333333336
-500.0   30.0   33.333333333333336
-450.0   30.0   50.0
-500.0   0.0   50.0
-500.0   30.0   50.0
-450.0   30.0   50.0
-500.0   30.0   33.333333333333336
-500.0   0.0   50.0
-450.0   30.0   50.0
-450.0   0.0   50.0
-450.0   0.0   33.333333333333336
-500.0   0.0   50.0
-450.0   30.0   50.0
-450.0   0.0   33.333333333333336
-500.0   30.0   33.333333333333336
-500.0   30.0   0.0
-450.0   30.0   0.0
-500.0   60.0   0.0
-500.0   30.0   16.666666666666668
-450.0   30.0   0.0
-450.0   60.0   0.0
-500.0   60.0   0.0
-450.0   60.0   16.666666666666668
-500.0   30.0   16.666666666666668
-500.0   60.0   16.666666666666668
-450.0   60.0   16.666666666666668
-500.0   60.0   0.0
-500.0   30.0   16.666666666666668
-450.0   60.0   16.666666666666668
-450.0   30.0   16.666666666666668
-450.0   30.0   0.0
-500.0   30.0   16.666666666666668
-450.0   60.0   16.666666666666668
-450.0   30.0   0.0
-500.0   60.0   0.0
-500.0   30.0   16.666666666666668
-450.0   30.0   16.666666666666668
-500.0   60.0   16.666666666666668
-500.0   30.0   33.333333333333336
-450.0   30.0   16.666666666666668
-450.0   60.0   16.666666666666668
-500.0   60.0   16.666666666666668
-450.0   60.0   33.333333333333336
-500.0   30.0   33.333333333333336
-500.0   60.0   33.333333333333336
-450.0   60.0   33.333333333333336
-500.0   60.0   16.666666666666668
-500.0   30.0   33.333333333333336
-450.0   60.0   33.333333333333336
-450.0   30.0   33.333333333333336
-450.0   30.0   16.666666666666668
-500.0   30.0   33.333333333333336
-450.0   60.0   33.333333333333336
-450.0   30.0   16.666666666666668
-500.0   60.0   16.666666666666668
-500.0   30.0   33.333333333333336
-450.0   30.0   33.333333333333336
-500.0   60.0   33.333333333333336
-500.0   30.0   50.0
-450.0   30.0   33.333333333333336
-450.0   60.0   33.333333333333336
-500.0   60.0   33.333333333333336
-450.0   60.0   50.0
-500.0   30.0   50.0
-500.0   60.0   50.0
-450.0   60.0   50.0
-500.0   60.0   33.333333333333336
-500.0   30.0   50.0
-450.0   60.0   50.0
-450.0   30.0   50.0
-450.0   30.0   33.333333333333336
-500.0   30.0   50.0
-450.0   60.0   50.0
-450.0   30.0   33.333333333333336
-500.0   60.0   33.333333333333336
-500.0   60.0   0.0
-450.0   60.0   0.0
-500.0   90.0   0.0
-500.0   60.0   16.666666666666668
-450.0   60.0   0.0
-450.0   90.0   0.0
-500.0   90.0   0.0
-450.0   90.0   16.666666666666668
-500.0   60.0   16.666666666666668
-500.0   90.0   16.666666666666668
-450.0   90.0   16.666666666666668
-500.0   90.0   0.0
-500.0   60.0   16.666666666666668
-450.0   90.0   16.666666666666668
-450.0   60.0   16.666666666666668
-450.0   60.0   0.0
-500.0   60.0   16.666666666666668
-450.0   90.0   16.666666666666668
-450.0   60.0   0.0
-500.0   90.0   0.0
-500.0   60.0   16.666666666666668
-450.0   60.0   16.666666666666668
-500.0   90.0   16.666666666666668
-500.0   60.0   33.333333333333336
-450.0   60.0   16.666666666666668
-450.0   90.0   16.666666666666668
-500.0   90.0   16.666666666666668
-450.0   90.0   33.333333333333336
-500.0   60.0   33.333333333333336
-500.0   90.0   33.333333333333336
-450.0   90.0   33.333333333333336
-500.0   90.0   16.666666666666668
-500.0   60.0   33.333333333333336
-450.0   90.0   33.333333333333336
-450.0   60.0   33.333333333333336
-450.0   60.0   16.666666666666668
-500.0   60.0   33.333333333333336
-450.0   90.0   33.333333333333336
-450.0   60.0   16.666666666666668
-500.0   90.0   16.666666666666668
-500.0   60.0   33.333333333333336
-450.0   60.0   33.333333333333336
-500.0   90.0   33.333333333333336
-500.0   60.0   50.0
-450.0   60.0   33.333333333333336
-450.0   90.0   33.333333333333336
-500.0   90.0   33.333333333333336
-450.0   90.0   50.0
-500.0   60.0   50.0
-500.0   90.0   50.0
-450.0   90.0   50.0
-500.0   90.0   33.333333333333336
-500.0   60.0   50.0
-450.0   90.0   50.0
-450.0   60.0   50.0
-450.0   60.0   33.333333333333336
-500.0   60.0   50.0
-450.0   90.0   50.0
-450.0   60.0   33.333333333333336
-500.0   90.0   33.333333333333336
-500.0   90.0   0.0
-450.0   90.0   0.0
-500.0   120.0   0.0
-500.0   90.0   16.666666666666668
-450.0   90.0   0.0
-450.0   120.0   0.0
-500.0   120.0   0.0
-450.0   120.0   16.666666666666668
-500.0   90.0   16.666666666666668
-500.0   120.0   16.666666666666668
-450.0   120.0   16.666666666666668
-500.0   120.0   0.0
-500.0   90.0   16.666666666666668
-450.0   120.0   16.666666666666668
-450.0   90.0   16.666666666666668
-450.0   90.0   0.0
-500.0   90.0   16.666666666666668
-450.0   120.0   16.666666666666668
-450.0   90.0   0.0
-500.0   120.0   0.0
-500.0   90.0   16.666666666666668
-450.0   90.0   16.666666666666668
-500.0   120.0   16.666666666666668
-500.0   90.0   33.333333333333336
-450.0   90.0   16.666666666666668
-450.0   120.0   16.666666666666668
-500.0   120.0   16.666666666666668
-450.0   120.0   33.333333333333336
-500.0   90.0   33.333333333333336
-500.0   120.0   33.333333333333336
-450.0   120.0   33.333333333333336
-500.0   120.0   16.666666666666668
-500.0   90.0   33.333333333333336
-450.0   120.0   33.333333333333336
-450.0   90.0   33.333333333333336
-450.0   90.0   16.666666666666668
-500.0   90.0   33.333333333333336
-450.0   120.0   33.333333333333336
-450.0   90.0   16.666666666666668
-500.0   120.0   16.666666666666668
-500.0   90.0   33.333333333333336
-450.0   90.0   33.333333333333336
-500.0   120.0   33.333333333333336
-500.0   90.0   50.0
-450.0   90.0   33.333333333333336
-450.0   120.0   33.333333333333336
-500.0   120.0   33.333333333333336
-450.0   120.0   50.0
-500.0   90.0   50.0
-500.0   120.0   50.0
-450.0   120.0   50.0
-500.0   120.0   33.333333333333336
-500.0   90.0   50.0
-450.0   120.0   50.0
-450.0   90.0   50.0
-450.0   90.0   33.333333333333336
-500.0   90.0   50.0
-450.0   120.0   50.0
-450.0   90.0   33.333333333333336
-500.0   120.0   33.333333333333336
-500.0   120.0   0.0
-450.0   120.0   0.0
-500.0   150.0   0.0
-500.0   120.0   16.666666666666668
-450.0   120.0   0.0
-450.0   150.0   0.0
-500.0   150.0   0.0
-450.0   150.0   16.666666666666668
-500.0   120.0   16.666666666666668
-500.0   150.0   16.666666666666668
-450.0   150.0   16.666666666666668
-500.0   150.0   0.0
-500.0   120.0   16.666666666666668
-450.0   150.0   16.666666666666668
-450.0   120.0   16.666666666666668
-450.0   120.0   0.0
-500.0   120.0   16.666666666666668
-450.0   150.0   16.666666666666668
-450.0   120.0   0.0
-500.0   150.0   0.0
-500.0   120.0   16.666666666666668
-450.0   120.0   16.666666666666668
-500.0   150.0   16.666666666666668
-500.0   120.0   33.333333333333336
-450.0   120.0   16.666666666666668
-450.0   150.0   16.666666666666668
-500.0   150.0   16.666666666666668
-450.0   150.0   33.333333333333336
-500.0   120.0   33.333333333333336
-500.0   150.0   33.333333333333336
-450.0   150.0   33.333333333333336
-500.0   150.0   16.666666666666668
-500.0   120.0   33.333333333333336
-450.0   150.0   33.333333333333336
-450.0   120.0   33.333333333333336
-450.0   120.0   16.666666666666668
-500.0   120.0   33.333333333333336
-450.0   150.0   33.333333333333336
-450.0   120.0   16.666666666666668
-500.0   150.0   16.666666666666668
-500.0   120.0   33.333333333333336
-450.0   120.0   33.333333333333336
-500.0   150.0   33.333333333333336
-500.0   120.0   50.0
-450.0   120.0   33.333333333333336
-450.0   150.0   33.333333333333336
-500.0   150.0   33.333333333333336
-450.0   150.0   50.0
-500.0   120.0   50.0
-500.0   150.0   50.0
-450.0   150.0   50.0
-500.0   150.0   33.333333333333336
-500.0   120.0   50.0
-450.0   150.0   50.0
-450.0   120.0   50.0
-450.0   120.0   33.333333333333336
-500.0   120.0   50.0
-450.0   150.0   50.0
-450.0   120.0   33.333333333333336
-500.0   150.0   33.333333333333336
-450.0   0.0   0.0
-400.0   0.0   0.0
-450.0   30.0   0.0
-450.0   0.0   16.666666666666668
-400.0   0.0   0.0
-400.0   30.0   0.0
-450.0   30.0   0.0
-400.0   30.0   16.666666666666668
-450.0   0.0   16.666666666666668
-450.0   30.0   16.666666666666668
-400.0   30.0   16.666666666666668
-450.0   30.0   0.0
-450.0   0.0   16.666666666666668
-400.0   30.0   16.666666666666668
-400.0   0.0   16.666666666666668
-400.0   0.0   0.0
-450.0   0.0   16.666666666666668
-400.0   30.0   16.666666666666668
-400.0   0.0   0.0
-450.0   30.0   0.0
-450.0   0.0   16.666666666666668
-400.0   0.0   16.666666666666668
-450.0   30.0   16.666666666666668
[...]
          <PointData>  
             <DataArray type="Float64" NumberOfComponents="3" Name="Strains" format="ascii">   
-5.056313829227433e-05   0.0   -3.3306510373250345e-05
-5.056313829227433e-05   0.0   -3.3306510373250345e-05
-5.056313829227433e-05   0.0   -3.3306510373250345e-05
-5.056313829227433e-05   0.0   -3.3306510373250345e-05
-3.216225291141992e-05   5.585260096377461e-06   7.127879860000953e-07
-3.216225291141992e-05   5.585260096377461e-06   7.127879860000953e-07
-3.216225291141992e-05   5.585260096377461e-06   7.127879860000953e-07
-3.216225291141992e-05   5.585260096377461e-06   7.127879860000953e-07
-3.1517942177977973e-05   0.0   -3.14508209411491e-05
-3.1517942177977973e-05   0.0   -3.14508209411491e-05
-3.1517942177977973e-05   0.0   -3.14508209411491e-05
-3.1517942177977973e-05   0.0   -3.14508209411491e-05
-5.290652083237671e-05   6.710309663165297e-06   1.7062435161642106e-07
-5.290652083237671e-05   6.710309663165297e-06   1.7062435161642106e-07
-5.290652083237671e-05   6.710309663165297e-06   1.7062435161642106e-07
-5.290652083237671e-05   6.710309663165297e-06   1.7062435161642106e-07
-4.1040540235126084e-05   1.546407860084375e-06   -1.650766889528605e-05
-4.1040540235126084e-05   1.546407860084375e-06   -1.650766889528605e-05
-4.1040540235126084e-05   1.546407860084375e-06   -1.650766889528605e-05
-4.1040540235126084e-05   1.546407860084375e-06   -1.650766889528605e-05
-5.2906520832376804e-05   0.0   -3.547700673904828e-05
-5.2906520832376804e-05   0.0   -3.547700673904828e-05
-5.2906520832376804e-05   0.0   -3.547700673904828e-05
-5.2906520832376804e-05   0.0   -3.547700673904828e-05
-3.1517942177977973e-05   6.7103096631653035e-06   4.1968101495156005e-06
-3.1517942177977973e-05   6.7103096631653035e-06   4.1968101495156005e-06
-3.1517942177977973e-05   6.7103096631653035e-06   4.1968101495156005e-06
-3.1517942177977973e-05   6.7103096631653035e-06   4.1968101495156005e-06
-3.159791231178079e-05   0.0   -3.221822667534102e-05
-3.159791231178079e-05   0.0   -3.221822667534102e-05
-3.159791231178079e-05   0.0   -3.221822667534102e-05
-3.159791231178079e-05   0.0   -3.221822667534102e-05
-5.454816225219251e-05   7.191186078055897e-06   1.7174782451784417e-06
-5.454816225219251e-05   7.191186078055897e-06   1.7174782451784417e-06
-5.454816225219251e-05   7.191186078055897e-06   1.7174782451784417e-06
-5.454816225219251e-05   7.191186078055897e-06   1.7174782451784417e-06
-4.2252216572078726e-05   2.7156500530893807e-06   -1.6090442940031265e-05
-4.2252216572078726e-05   2.7156500530893807e-06   -1.6090442940031265e-05
-4.2252216572078726e-05   2.7156500530893807e-06   -1.6090442940031265e-05
-4.2252216572078726e-05   2.7156500530893807e-06   -1.6090442940031265e-05
-5.45481622521926e-05   0.0   -3.6532938322174566e-05
-5.45481622521926e-05   0.0   -3.6532938322174566e-05
-5.45481622521926e-05   0.0   -3.6532938322174566e-05
-5.45481622521926e-05   0.0   -3.6532938322174566e-05
-3.1597912311780736e-05   7.191186078055897e-06   6.032189892011985e-06
-3.1597912311780736e-05   7.191186078055897e-06   6.032189892011985e-06
-3.1597912311780736e-05   7.191186078055897e-06   6.032189892011985e-06
-3.1597912311780736e-05   7.191186078055897e-06   6.032189892011985e-06
-3.15712528834208e-05   0.0   -3.241682530889935e-05
-3.15712528834208e-05   0.0   -3.241682530889935e-05
-3.15712528834208e-05   0.0   -3.241682530889935e-05
-3.15712528834208e-05   0.0   -3.241682530889935e-05
-5.809355832668614e-05   8.198794460607705e-06   6.867740420178389e-06
-5.809355832668614e-05   8.198794460607705e-06   6.867740420178389e-06
-5.809355832668614e-05   8.198794460607705e-06   6.867740420178389e-06
-5.809355832668614e-05   8.198794460607705e-06   6.867740420178389e-06
-4.305970756780663e-05   3.4300941777293487e-06   -1.532745734156042e-05
-4.305970756780663e-05   3.4300941777293487e-06   -1.532745734156042e-05
-4.305970756780663e-05   3.4300941777293487e-06   -1.532745734156042e-05
-4.305970756780663e-05   3.4300941777293487e-06   -1.532745734156042e-05
-3.216225291141997e-05   0.0   -2.9955354315423864e-05
-3.216225291141997e-05   0.0   -2.9955354315423864e-05
-3.216225291141997e-05   0.0   -2.9955354315423864e-05
-3.216225291141997e-05   0.0   -2.9955354315423864e-05
-1.4657174646691113e-05   2.045334662580056e-06   4.469769233389118e-07
-1.4657174646691113e-05   2.045334662580056e-06   4.469769233389118e-07
-1.4657174646691113e-05   2.045334662580056e-06   4.469769233389118e-07
-1.4657174646691113e-05   2.045334662580056e-06   4.469769233389118e-07
-1.4088373301639291e-05   0.0   -2.9700471844037326e-05
-1.4088373301639291e-05   0.0   -2.9700471844037326e-05
-1.4088373301639291e-05   0.0   -2.9700471844037326e-05
-1.4088373301639291e-05   0.0   -2.9700471844037326e-05
-3.1517942177977973e-05   2.917248495186199e-06   -2.4015394805846686e-06
-3.1517942177977973e-05   2.917248495186199e-06   -2.4015394805846686e-06
-3.1517942177977973e-05   2.917248495186199e-06   -2.4015394805846686e-06
-3.1517942177977973e-05   2.917248495186199e-06   -2.4015394805846686e-06
-2.3125313106529605e-05   2.1240205948874037e-07   -1.4766346738246705e-05
-2.3125313106529605e-05   2.1240205948874037e-07   -1.4766346738246705e-05
-2.3125313106529605e-05   2.1240205948874037e-07   -1.4766346738246705e-05
-2.3125313106529605e-05   2.1240205948874037e-07   -1.4766346738246705e-05
-3.1517942177977946e-05   0.0   -3.145082094114907e-05
-3.1517942177977946e-05   0.0   -3.145082094114907e-05
-3.1517942177977946e-05   0.0   -3.145082094114907e-05
-3.1517942177977946e-05   0.0   -3.145082094114907e-05
-1.4088373301639291e-05   2.9172484951861923e-06   -6.511903834729478e-07
-1.4088373301639291e-05   2.9172484951861923e-06   -6.511903834729478e-07
-1.4088373301639291e-05   2.9172484951861923e-06   -6.511903834729478e-07
-1.4088373301639291e-05   2.9172484951861923e-06   -6.511903834729478e-07
-1.3765272299990537e-05   0.0   -3.0071449042221674e-05
-1.3765272299990537e-05   0.0   -3.0071449042221674e-05
-1.3765272299990537e-05   0.0   -3.0071449042221674e-05
-1.3765272299990537e-05   0.0   -3.0071449042221674e-05
-3.159791231178079e-05   3.577962721865494e-06   -2.4971599890239753e-06
-3.159791231178079e-05   3.577962721865494e-06   -2.4971599890239753e-06
-3.159791231178079e-05   3.577962721865494e-06   -2.4971599890239753e-06
-3.159791231178079e-05   3.577962721865494e-06   -2.4971599890239753e-06
-2.2641607238984223e-05   1.1494765824394726e-06   -1.5967243426695845e-05
-2.2641607238984223e-05   1.1494765824394726e-06   -1.5967243426695845e-05
-2.2641607238984223e-05   1.1494765824394726e-06   -1.5967243426695845e-05
-2.2641607238984223e-05   1.1494765824394726e-06   -1.5967243426695845e-05
-3.159791231178079e-05   0.0   -3.221822667534102e-05
-3.159791231178079e-05   0.0   -3.221822667534102e-05
-3.159791231178079e-05   0.0   -3.221822667534102e-05
-3.159791231178079e-05   0.0   -3.221822667534102e-05
-1.376527229999056e-05   3.577962721865494e-06   -3.503823559046741e-07
-1.376527229999056e-05   3.577962721865494e-06   -3.503823559046741e-07
-1.376527229999056e-05   3.577962721865494e-06   -3.503823559046741e-07
-1.376527229999056e-05   3.577962721865494e-06   -3.503823559046741e-07
-1.3469590650334817e-05   0.0   -2.991753005706833e-05
-1.3469590650334817e-05   0.0   -2.991753005706833e-05
-1.3469590650334817e-05   0.0   -2.991753005706833e-05
-1.3469590650334817e-05   0.0   -2.991753005706833e-05
-3.157125288342072e-05   4.165492086384978e-06   -2.247388253756023e-06
-3.157125288342072e-05   4.165492086384978e-06   -2.247388253756023e-06
-3.157125288342072e-05   4.165492086384978e-06   -2.247388253756023e-06
-3.157125288342072e-05   4.165492086384978e-06   -2.247388253756023e-06
-2.2533751481057797e-05   1.9172471818938857e-06   -1.596094364833303e-05
-2.2533751481057797e-05   1.9172471818938857e-06   -1.596094364833303e-05
-2.2533751481057797e-05   1.9172471818938857e-06   -1.596094364833303e-05
-2.2533751481057797e-05   1.9172471818938857e-06   -1.596094364833303e-05
-1.4657174646691139e-05   0.0   -2.872815351787583e-05
-1.4657174646691139e-05   0.0   -2.872815351787583e-05
-1.4657174646691139e-05   0.0   -2.872815351787583e-05
-1.4657174646691139e-05   0.0   -2.872815351787583e-05
1.8742159409569757e-06   -2.6438502896988477e-07   -1.3344668891775404e-06
1.8742159409569757e-06   -2.6438502896988477e-07   -1.3344668891775404e-06
1.8742159409569757e-06   -2.6438502896988477e-07   -1.3344668891775404e-06
1.8742159409569757e-06   -2.6438502896988477e-07   -1.3344668891775404e-06
2.2414139848598364e-06   0.0   -2.9389541628511267e-05
2.2414139848598364e-06   0.0   -2.9389541628511267e-05
2.2414139848598364e-06   0.0   -2.9389541628511267e-05
2.2414139848598364e-06   0.0   -2.9389541628511267e-05
-1.4088373301639291e-05   5.18217025876678e-07   -2.4841596998721097e-06
-1.4088373301639291e-05   5.18217025876678e-07   -2.4841596998721097e-06
-1.4088373301639291e-05   5.18217025876678e-07   -2.4841596998721097e-06
-1.4088373301639291e-05   5.18217025876678e-07   -2.4841596998721097e-06
-6.207880330915637e-06   -5.511567588629487e-07   -1.497669038023441e-05
-6.207880330915637e-06   -5.511567588629487e-07   -1.497669038023441e-05
-6.207880330915637e-06   -5.511567588629487e-07   -1.497669038023441e-05
-6.207880330915637e-06   -5.511567588629487e-07   -1.497669038023441e-05
-1.4088373301639317e-05   0.0   -2.9700471844037377e-05
-1.4088373301639317e-05   0.0   -2.9700471844037377e-05
-1.4088373301639317e-05   0.0   -2.9700471844037377e-05
-1.4088373301639317e-05   0.0   -2.9700471844037377e-05
2.2414139848598402e-06   5.18217025876678e-07   -2.1732294843461e-06
2.2414139848598402e-06   5.18217025876678e-07   -2.1732294843461e-06
2.2414139848598402e-06   5.18217025876678e-07   -2.1732294843461e-06
2.2414139848598402e-06   5.18217025876678e-07   -2.1732294843461e-06
2.532408428955654e-06   0.0   -2.9346810764104385e-05
2.532408428955654e-06   0.0   -2.9346810764104385e-05
2.532408428955654e-06   0.0   -2.9346810764104385e-05
2.532408428955654e-06   0.0   -2.9346810764104385e-05
-1.3765272299990513e-05   1.2077304635288132e-06   -2.908647827311357e-06
-1.3765272299990513e-05   1.2077304635288132e-06   -2.908647827311357e-06
-1.3765272299990513e-05   1.2077304635288132e-06   -2.908647827311357e-06
-1.3765272299990513e-05   1.2077304635288132e-06   -2.908647827311357e-06
-5.777982436341818e-06   2.9471756661078306e-07   -1.567298986190839e-05
-5.777982436341818e-06   2.9471756661078306e-07   -1.567298986190839e-05
-5.777982436341818e-06   2.9471756661078306e-07   -1.567298986190839e-05
-5.777982436341818e-06   2.9471756661078306e-07   -1.567298986190839e-05
-1.376527229999056e-05   0.0   -3.0071449042221725e-05
-1.376527229999056e-05   0.0   -3.0071449042221725e-05
-1.376527229999056e-05   0.0   -3.0071449042221725e-05
-1.376527229999056e-05   0.0   -3.0071449042221725e-05
2.5324084289556583e-06   1.2077304635288132e-06   -2.184009549194077e-06
2.5324084289556583e-06   1.2077304635288132e-06   -2.184009549194077e-06
2.5324084289556583e-06   1.2077304635288132e-06   -2.184009549194077e-06
2.5324084289556583e-06   1.2077304635288132e-06   -2.184009549194077e-06
2.9209831097360184e-06   0.0   -2.8714030474046355e-05
2.9209831097360184e-06   0.0   -2.8714030474046355e-05
2.9209831097360184e-06   0.0   -2.8714030474046355e-05
2.9209831097360184e-06   0.0   -2.8714030474046355e-05
-1.3469590650334805e-05   2.0058326383699124e-06   -2.5999071236169347e-06
-1.3469590650334805e-05   2.0058326383699124e-06   -2.5999071236169347e-06
-1.3469590650334805e-05   2.0058326383699124e-06   -2.5999071236169347e-06
-1.3469590650334805e-05   2.0058326383699124e-06   -2.5999071236169347e-06
-5.422144595127259e-06   1.1311821401460982e-06   -1.548752691669521e-05
-5.422144595127259e-06   1.1311821401460982e-06   -1.548752691669521e-05
-5.422144595127259e-06   1.1311821401460982e-06   -1.548752691669521e-05
-5.422144595127259e-06   1.1311821401460982e-06   -1.548752691669521e-05
1.874215940956979e-06   0.0   -2.888678453525776e-05
1.874215940956979e-06   0.0   -2.888678453525776e-05
1.874215940956979e-06   0.0   -2.888678453525776e-05
1.874215940956979e-06   0.0   -2.888678453525776e-05
1.9826375837329204e-05   -2.3254783560622695e-06   -3.6180505494128187e-07
1.9826375837329204e-05   -2.3254783560622695e-06   -3.6180505494128187e-07
1.9826375837329204e-05   -2.3254783560622695e-06   -3.6180505494128187e-07
1.9826375837329204e-05   -2.3254783560622695e-06   -3.6180505494128187e-07
1.9872527721590028e-05   0.0   -3.0439895491498697e-05
1.9872527721590028e-05   0.0   -3.0439895491498697e-05
1.9872527721590028e-05   0.0   -3.0439895491498697e-05
1.9872527721590028e-05   0.0   -3.0439895491498697e-05
2.2414139848598402e-06   -1.7505897716455442e-06   -4.352067294397937e-09
2.2414139848598402e-06   -1.7505897716455442e-06   -4.352067294397937e-09
2.2414139848598402e-06   -1.7505897716455442e-06   -4.352067294397937e-09
2.2414139848598402e-06   -1.7505897716455442e-06   -4.352067294397937e-09
1.0873371831273503e-05   -1.2942591302007784e-06   -1.4664746862850677e-05
1.0873371831273503e-05   -1.2942591302007784e-06   -1.4664746862850677e-05
1.0873371831273503e-05   -1.2942591302007784e-06   -1.4664746862850677e-05
1.0873371831273503e-05   -1.2942591302007784e-06   -1.4664746862850677e-05
2.2414139848598445e-06   0.0   -2.9389541628511372e-05
2.2414139848598445e-06   0.0   -2.9389541628511372e-05
2.2414139848598445e-06   0.0   -2.9389541628511372e-05
2.2414139848598445e-06   0.0   -2.9389541628511372e-05
1.9872527721589994e-05   -1.7505897716455442e-06   -1.054705930281726e-06
1.9872527721589994e-05   -1.7505897716455442e-06   -1.054705930281726e-06
1.9872527721589994e-05   -1.7505897716455442e-06   -1.054705930281726e-06
1.9872527721589994e-05   -1.7505897716455442e-06   -1.054705930281726e-06
1.9796807612471664e-05   0.0   -3.0005303346386206e-05
1.9796807612471664e-05   0.0   -3.0005303346386206e-05
1.9796807612471664e-05   0.0   -3.0005303346386206e-05
1.9796807612471664e-05   0.0   -3.0005303346386206e-05
2.5324084289556583e-06   -1.0974876371362775e-06   -5.728121249110989e-07
2.5324084289556583e-06   -1.0974876371362775e-06   -5.728121249110989e-07
2.5324084289556583e-06   -1.0974876371362775e-06   -5.728121249110989e-07
2.5324084289556583e-06   -1.0974876371362775e-06   -5.728121249110989e-07
1.1019110798665755e-05   -5.131347648956981e-07   -1.5067927797772263e-05
1.1019110798665755e-05   -5.131347648956981e-07   -1.5067927797772263e-05
1.1019110798665755e-05   -5.131347648956981e-07   -1.5067927797772263e-05
1.1019110798665755e-05   -5.131347648956981e-07   -1.5067927797772263e-05
2.5324084289556583e-06   0.0   -2.9346810764104436e-05
2.5324084289556583e-06   0.0   -2.9346810764104436e-05
2.5324084289556583e-06   0.0   -2.9346810764104436e-05
2.5324084289556583e-06   0.0   -2.9346810764104436e-05
1.979680761247163e-05   -1.0974876371362775e-06   -1.2313047071928633e-06
1.979680761247163e-05   -1.0974876371362775e-06   -1.2313047071928633e-06
1.979680761247163e-05   -1.0974876371362775e-06   -1.2313047071928633e-06
1.979680761247163e-05   -1.0974876371362775e-06   -1.2313047071928633e-06
2.018923575383186e-05   0.0   -2.884629235559784e-05
2.018923575383186e-05   0.0   -2.884629235559784e-05
2.018923575383186e-05   0.0   -2.884629235559784e-05
2.018923575383186e-05   0.0   -2.884629235559784e-05
2.9209831097360235e-06   -2.2043646925239092e-07   6.639059944664916e-08
2.9209831097360235e-06   -2.2043646925239092e-07   6.639059944664916e-08
2.9209831097360235e-06   -2.2043646925239092e-07   6.639059944664916e-08
2.9209831097360235e-06   -2.2043646925239092e-07   6.639059944664916e-08
1.1360822091393759e-05   4.1709867375549616e-07   -1.4382528789120962e-05
1.1360822091393759e-05   4.1709867375549616e-07   -1.4382528789120962e-05
1.1360822091393759e-05   4.1709867375549616e-07   -1.4382528789120962e-05
1.1360822091393759e-05   4.1709867375549616e-07   -1.4382528789120962e-05
1.9826375837329276e-05   0.0   -3.0282071548895127e-05
1.9826375837329276e-05   0.0   -3.0282071548895127e-05
1.9826375837329276e-05   0.0   -3.0282071548895127e-05
1.9826375837329276e-05   0.0   -3.0282071548895127e-05
4.481849261607427e-05   -5.902407897992705e-06   7.830011676884379e-06
4.481849261607427e-05   -5.902407897992705e-06   7.830011676884379e-06
4.481849261607427e-05   -5.902407897992705e-06   7.830011676884379e-06
4.481849261607427e-05   -5.902407897992705e-06   7.830011676884379e-06
4.2105952049364845e-05   0.0   -3.3449648038128365e-05
4.2105952049364845e-05   0.0   -3.3449648038128365e-05
4.2105952049364845e-05   0.0   -3.3449648038128365e-05
4.2105952049364845e-05   0.0   -3.3449648038128365e-05
1.9872527721589994e-05   -5.01625424438277e-06   6.615811721459319e-06
1.9872527721589994e-05   -5.01625424438277e-06   6.615811721459319e-06
1.9872527721589994e-05   -5.01625424438277e-06   6.615811721459319e-06
1.9872527721589994e-05   -5.01625424438277e-06   6.615811721459319e-06
3.096616394334706e-05   -2.6396470743610355e-06   -1.329954628348209e-05
3.096616394334706e-05   -2.6396470743610355e-06   -1.329954628348209e-05
3.096616394334706e-05   -2.6396470743610355e-06   -1.329954628348209e-05
3.096616394334706e-05   -2.6396470743610355e-06   -1.329954628348209e-05
1.987252772159001e-05   0.0   -3.043989549149867e-05
1.987252772159001e-05   0.0   -3.043989549149867e-05
1.987252772159001e-05   0.0   -3.043989549149867e-05
1.987252772159001e-05   0.0   -3.043989549149867e-05
4.2105952049364845e-05   -5.016254244382784e-06   3.6060591748296607e-06
4.2105952049364845e-05   -5.016254244382784e-06   3.6060591748296607e-06
4.2105952049364845e-05   -5.016254244382784e-06   3.6060591748296607e-06
4.2105952049364845e-05   -5.016254244382784e-06   3.6060591748296607e-06
4.0859332974515917e-05   0.0   -3.275431449443458e-05
4.0859332974515917e-05   0.0   -3.275431449443458e-05
4.0859332974515917e-05   0.0   -3.275431449443458e-05
4.0859332974515917e-05   0.0   -3.275431449443458e-05
1.979680761247163e-05   -4.581685246747287e-06   5.098905590354209e-06
1.979680761247163e-05   -4.581685246747287e-06   5.098905590354209e-06
1.979680761247163e-05   -4.581685246747287e-06   5.098905590354209e-06
1.979680761247163e-05   -4.581685246747287e-06   5.098905590354209e-06
3.0365930348052955e-05   -1.928682502446573e-06   -1.4108100615528375e-05
3.0365930348052955e-05   -1.928682502446573e-06   -1.4108100615528375e-05
3.0365930348052955e-05   -1.928682502446573e-06   -1.4108100615528375e-05
3.0365930348052955e-05   -1.928682502446573e-06   -1.4108100615528375e-05
1.9796807612471664e-05   0.0   -3.0005303346386206e-05
1.9796807612471664e-05   0.0   -3.0005303346386206e-05
1.9796807612471664e-05   0.0   -3.0005303346386206e-05
1.9796807612471664e-05   0.0   -3.0005303346386206e-05
4.085933297451584e-05   -4.581685246747287e-06   2.3498944423058256e-06
4.085933297451584e-05   -4.581685246747287e-06   2.3498944423058256e-06
4.085933297451584e-05   -4.581685246747287e-06   2.3498944423058256e-06
4.085933297451584e-05   -4.581685246747287e-06   2.3498944423058256e-06
3.899690401126531e-05   0.0   -3.097883096028127e-05
3.899690401126531e-05   0.0   -3.097883096028127e-05
3.899690401126531e-05   0.0   -3.097883096028127e-05
3.899690401126531e-05   0.0   -3.097883096028127e-05
2.0189235753831807e-05   -3.5542310078057055e-06   2.4998214067912627e-06
2.0189235753831807e-05   -3.5542310078057055e-06   2.4998214067912627e-06
2.0189235753831807e-05   -3.5542310078057055e-06   2.4998214067912627e-06
2.0189235753831807e-05   -3.5542310078057055e-06   2.4998214067912627e-06
2.9396855811868435e-05   -8.112730115792212e-07   -1.4491986821005659e-05
2.9396855811868435e-05   -8.112730115792212e-07   -1.4491986821005659e-05
2.9396855811868435e-05   -8.112730115792212e-07   -1.4491986821005659e-05
2.9396855811868435e-05   -8.112730115792212e-07   -1.4491986821005659e-05
-4.378051475921601e-05   5.585260096377448e-06   -2.880669767062034e-05
-4.378051475921601e-05   5.585260096377448e-06   -2.880669767062034e-05