<?xml version="1.0"?> 
<VTKFile type="UnstructuredGrid"> 
   <UnstructuredGrid> 
      <Piece NumberOfPoints="6000"  NumberOfCells="1500">  
          <Points>  
             <DataArray type="Float64" NumberOfComponents="3" format="ascii">   
-500.0   0.0   0.0
-450.0   0.0   0.0
-500.0   30.0   0.0
-500.0   0.0   16.666666666666668
-450.0   0.0   0.0
-450.0   30.0   0.0
-500.0   30.0   0.0
-450.0   30.0   16.666666666666668
-500.0   0.0   16.666666666666668
-500.0   30.0   16.666666666666668
-450.0   30.0   16.666666666666668
-500.0   30.0   0.0
-500.0   0.0   16.666666666666668
-450.0   30.0   16.666666666666668
-450.0   0.0   16.666666666666668
-450.0   0.0   0.0
-500.0   0.0   16.666666666666668
-450.0   30.0   16.666666666666668
-450.0   0.0   0.0
-500.0   30.0   0.0
-500.0   0.0   16.666666666666668
-450.0   0.0   16.666666666666668
-500.0   30.0   16.666666666666668
-500.0   0.0   33.333333333333336
-450.0   0.0   16.666666666666668
-450.0   30.0   16.666666666666668
-500.0   30.0   16.666666666666668
-450.0   30.0   33.333333333333336
-500.0   0.0   33.333333333333336
-500.0   30.0   33.333333333333336
-450.0   30.0   33.333333333333336
-500.0   30.0   16.666666666666668
-500.0   0.0   33.333333333333336
-450.0   30.0   33.333333333333336
-450.0   0.0   33.333333333333336
-450.0   0.0   16.666666666666668
-500.0   0.0   33.333333333333336
-450.0   30.0   33.333333333333336
-450.0   0.0   16.666666666666668
-500.0   30.0   16.666666666666668
-500.0   0.0   33.333333333333336
-450.0   0.0   33.333333333333336
-500.0   30.0   33.333333333333336
-500.0   0.0   50.0
-450.0   0.0   33.333333333333336
-450.0   30.0   33.333333333333336
-500.0   30.0   33.333333333333336
-450.0   30.0   50.0
-500.0   0.0   50.0
-500.0   30.0   50.0
-450.0   30.0   50.0
-500.0   30.0   33.333333333333336
-500.0   0.0   50.0
-450.0   30.0   50.0
-450.0   0.0   50.0
-450.0   0.0   33.333333333333336
-500.0   0.0   50.0
-450.0   30.0   50.0
-450.0   0.0   33.333333333333336
-500.0   30.0   33.333333333333336
-500.0   30.0   0.0
-450.0   30.0   0.0
-500.0   60.0   0.0
-500.0   30.0   16.666666666666668
-450.0   30.0   0.0
-450.0   60.0   0.0
-500.0   60.0   0.0
-450.0   60.0   16.666666666666668
-500.0   30.0   16.666666666666668
-500.0   60.0   16.666666666666668
-450.0   60.0   16.666666666666668
-500.0   60.0   0.0
-500.0   30.0   16.666666666666668
-450.0   60.0   16.666666666666668
-450.0   30.0   16.666666666666668
-450.0   30.0   0.0
-500.0   30.0   16.666666666666668
-450.0   60.0   16.666666666666668
-450.0   30.0   0.0
-500.0   60.0   0.0
-500.0   30.0   16.666666666666668
-450.0   30.0   16.666666666666668
-500.0   60.0   16.666666666666668
-500.0   30.0   33.333333333333336
-450.0   30.0   16.666666666666668
-450.0   60.0   16.666666666666668
-500.0   60.0   16.666666666666668
-450.0   60.0   33.333333333333336
-500.0   30.0   33.333333333333336
-500.0   60.0   33.333333333333336
-450.0   60.0   33.333333333333336
-500.0   60.0   16.666666666666668
-500.0   30.0   33.333333333333336
-450.0   60.0   33.333333333333336
-450.0   30.0   33.333333333333336
-450.0   30.0   16.666666666666668
-500.0   30.0   33.333333333333336
-450.0   60.0   33.333333333333336
-450.0   30.0   16.666666666666668
-500.0   60.0   16.666666666666668
-500.0   30.0   33.333333333333336
-450.0   30.0   33.333333333333336
-500.0   60.0   33.333333333333336
-500.0   30.0   50.0
-450.0   30.0   33.333333333333336
-450.0   60.0   33.333333333333336
-500.0   60.0   33.333333333333336
-450.0   60.0   50.0
-500.0   30.0   50.0
-500.0   60.0   50.0
-450.0   60.0   50.0
-500.0   60.0   33.333333333333336
-500.0   30.0   50.0
-450.0   60.0   50.0
-450.0   30.0   50.0
-450.0   30.0   33.333333333333336
-500.0   30.0   50.0
-450.0   60.0   50.0
-450.0   30.0   33.333333333333336
-500.0   60.0   33.333333333333336
-500.0   60.0   0.0
-450.0   60.0   0.0
-500.0   90.0   0.0
-500.0   60.0   16.666666666666668
-450.0   60.0   0.0
-450.0   90.0   0.0
-500.0   90.0   0.0
-450.0   90.0   16.666666666666668
-500.0   60.0   16.666666666666668
-500.0   90.0   16.666666666666668
-450.0   90.0   16.666666666666668
-500.0   90.0   0.0
-500.0   60.0   16.666666666666668
-450.0   90.0   16.666666666666668
-450.0   60.0   16.666666666666668
-450.0   60.0   0.0
-500.0   60.0   16.666666666666668
-450.0   90.0   16.666666666666668
-450.0   60.0   0.0
-500.0   90.0   0.0
-500.0   60.0   16.666666666666668
-450.0   60.0   16.666666666666668
-500.0   90.0   16.666666666666668
-500.0   60.0   33.333333333333336
-450.0   60.0   16.666666666666668
-450.0   90.0   16.666666666666668
-500.0   90.0   16.666666666666668
-450.0   90.0   33.333333333333336
-500.0   60.0   33.333333333333336
-500.0   90.0   33.333333333333336
-450.0   90.0   33.333333333333336
-500.0   90.0   16.666666666666668
-500.0   60.0   33.333333333333336
-450.0   90.0   33.333333333333336
-450.0   60.0   33.333333333333336
-450.0   60.0   16.666666666666668
-500.0   60.0   33.333333333333336
-450.0   90.0   33.333333333333336
-450.0   60.0   16.666666666666668
-500.0   90.0   16.666666666666668
-500.0   60.0   33.333333333333336
-450.0   60.0   33.333333333333336
-500.0   90.0   33.333333333333336
-500.0   60.0   50.0
-450.0   60.0   33.333333333333336
-450.0   90.0   33.333333333333336
-500.0   90.0   33.333333333333336
-450.0   90.0   50.0
-500.0   60.0   50.0
-500.0   90.0   50.0
-450.0   90.0   50.0
-500.0   90.0   33.333333333333336
-500.0   60.0   50.0
-450.0   90.0   50.0
-450.0   60.0   50.0
-450.0   60.0   33.333333333333336
-500.0   60.0   50.0
-450.0   90.0   50.0
-450.0   60.0   33.333333333333336
-500.0   90.0   33.333333333333336
-500.0   90.0   0.0
-450.0   90.0   0.0
-500.0   120.0   0.0
-500.0   90.0   16.666666666666668
-450.0   90.0   0.0
-450.0   120.0   0.0
-500.0   120.0   0.0
-450.0   120.0   16.666666666666668
-500.0   90.0   16.666666666666668
-500.0   120.0   16.666666666666668
-450.0   120.0   16.666666666666668
-500.0   120.0   0.0
-500.0   90.0   16.666666666666668
-450.0   120.0   16.666666666666668
-450.0   90.0   16.666666666666668
-450.0   90.0   0.0
-500.0   90.0   16.666666666666668
-450.0   120.0   16.666666666666668
-450.0   90.0   0.0
-500.0   120.0   0.0
-500.0   90.0   16.666666666666668
-450.0   90.0   16.666666666666668
-500.0   120.0   16.666666666666668
-500.0   90.0   33.333333333333336
-450.0   90.0   16.666666666666668
-450.0   120.0   16.666666666666668
-500.0   120.0   16.666666666666668
-450.0   120.0   33.333333333333336
-500.0   90.0   33.333333333333336
-500.0   120.0   33.333333333333336
-450.0   120.0   33.333333333333336
-500.0   120.0   16.666666666666668
-500.0   90.0   33.333333333333336
-450.0   120.0   33.333333333333336
-450.0   90.0   33.333333333333336
-450.0   90.0   16.666666666666668
-500.0   90.0   33.333333333333336
-450.0   120.0   33.333333333333336
-450.0   90.0   16.666666666666668
-500.0   120.0   16.666666666666668
-500.0   90.0   33.333333333333336
-450.0   90.0   33.333333333333336
-500.0   120.0   33.333333333333336
-500.0   90.0   50.0
-450.0   90.0   33.333333333333336
-450.0   120.0   33.333333333333336
-500.0   120.0   33.333333333333336
-450.0   120.0   50.0
-500.0   90.0   50.0
-500.0   120.0   50.0
-450.0   120.0   50.0
-500.0   120.0   33.333333333333336
-500.0   90.0   50.0
-450.0   120.0   50.0
-450.0   90.0   50.0
-450.0   90.0   33.333333333333336
-500.0   90.0   50.0
-450.0   120.0   50.0
-450.0   90.0   33.333333333333336
-500.0   120.0   33.333333333333336
-500.0   120.0   0.0
-450.0   120.0   0.0
-500.0   150.0   0.0
-500.0   120.0   16.666666666666668
-450.0   120.0   0.0
-450.0   150.0   0.0
-500.0   150.0   0.0
-450.0   150.0   16.666666666666668
-500.0   120.0   16.666666666666668
-500.0   150.0   16.666666666666668
-450.0   150.0   16.666666666666668
-500.0   150.0   0.0
-500.0   120.0   16.666666666666668
-450.0   150.0   16.666666666666668
-450.0   120.0   16.666666666666668
-450.0   120.0   0.0
-500.0   120.0   16.666666666666668
-450.0   150.0   16.666666666666668
-450.0   120.0   0.0
-500.0   150.0   0.0
-500.0   120.0   16.666666666666668
-450.0   120.0   16.666666666666668
-500.0   150.0   16.666666666666668
-500.0   120.0   33.333333333333336
-450.0   120.0   16.666666666666668
-450.0   150.0   16.666666666666668
-500.0   150.0   16.666666666666668
-450.0   150.0   33.333333333333336
-500.0   120.0   33.333333333333336
-500.0   150.0   33.333333333333336
-450.0   150.0   33.333333333333336
-500.0   150.0   16.666666666666668
-500.0   120.0   33.333333333333336
-450.0   150.0   33.333333333333336
-450.0   120.0   33.333333333333336
-450.0   120.0   16.666666666666668
-500.0   120.0   33.333333333333336
-450.0   150.0   33.333333333333336
-450.0   120.0   16.666666666666668
-500.0   150.0   16.666666666666668
-500.0   120.0   33.333333333333336
-450.0   120.0   33.333333333333336
-500.0   150.0   33.333333333333336
-500.0   120.0   50.0
-450.0   120.0   33.333333333333336
-450.0   150.0   33.333333333333336
-500.0   150.0   33.333333333333336
-450.0   150.0   50.0
-500.0   120.0   50.0
-500.0   150.0   50.0
-450.0   150.0   50.0
-500.0   150.0   33.333333333333336
-500.0   120.0   50.0
-450.0   150.0   50.0
-450.0   120.0   50.0
-450.0   120.0   33.333333333333336
-500.0   120.0   50.0
-450.0   150.0   50.0
-450.0   120.0   33.333333333333336
-500.0   150.0   33.333333333333336
-450.0   0.0   0.0
-400.0   0.0   0.0
-450.0   30.0   0.0
-450.0   0.0   16.666666666666668
-400.0   0.0   0.0
-400.0   30.0   0.0
-450.0   30.0   0.0
-400.0   30.0   16.666666666666668
-450.0   0.0   16.666666666666668
-450.0   30.0   16.666666666666668
-400.0   30.0   16.666666666666668
-450.0   30.0   0.0
-450.0   0.0   16.666666666666668
-400.0   30.0   16.666666666666668
-400.0   0.0   16.666666666666668
-400.0   0.0   0.0
-450.0   0.0   16.666666666666668
-400.0   30.0   16.666666666666668
-400.0   0.0   0.0
-450.0   30.0   0.0
-450.0   0.0   16.666666666666668
-400.0   0.0   16.666666666666668
-450.0   30.0   16.666666666666668
[...]
          <PointData>  
             <DataArray type="Float64" NumberOfComponents="3" Name="Strains" format="ascii">   
-1.3011568811721036e-05   0.0   -8.765400633043826e-06
-1.3011568811721036e-05   0.0   -8.765400633043826e-06
-1.3011568811721036e-05   0.0   -8.765400633043826e-06
-1.3011568811721036e-05   0.0   -8.765400633043826e-06
-8.257168956740023e-06   1.4114596980913644e-06   5.474944112662949e-09
-8.257168956740023e-06   1.4114596980913644e-06   5.474944112662949e-09
-8.257168956740023e-06   1.4114596980913644e-06   5.474944112662949e-09
-8.257168956740023e-06   1.4114596980913644e-06   5.474944112662949e-09
-8.0784340548442e-06   0.0   -8.302558785152433e-06
-8.0784340548442e-06   0.0   -8.302558785152433e-06
-8.0784340548442e-06   0.0   -8.302558785152433e-06
-8.0784340548442e-06   0.0   -8.302558785152433e-06
-1.3598135785059158e-05   1.708123953586122e-06   -1.2793027361247014e-07
-1.3598135785059158e-05   1.708123953586122e-06   -1.2793027361247014e-07
-1.3598135785059158e-05   1.708123953586122e-06   -1.2793027361247014e-07
-1.3598135785059158e-05   1.708123953586122e-06   -1.2793027361247014e-07
-1.05450014332826e-05   3.857015399094933e-07   -4.423034078367422e-06
-1.05450014332826e-05   3.857015399094933e-07   -4.423034078367422e-06
-1.05450014332826e-05   3.857015399094933e-07   -4.423034078367422e-06
-1.05450014332826e-05   3.857015399094933e-07   -4.423034078367422e-06
-1.359813578505918e-05   0.0   -9.327433157304108e-06
-1.359813578505918e-05   0.0   -9.327433157304108e-06
-1.359813578505918e-05   0.0   -9.327433157304108e-06
-1.359813578505918e-05   0.0   -9.327433157304108e-06
-8.0784340548442e-06   1.7081239535861237e-06   8.96944098539202e-07
-8.0784340548442e-06   1.7081239535861237e-06   8.96944098539202e-07
-8.0784340548442e-06   1.7081239535861237e-06   8.96944098539202e-07
-8.0784340548442e-06   1.7081239535861237e-06   8.96944098539202e-07
-8.084526561204989e-06   0.0   -8.501283916858425e-06
-8.084526561204989e-06   0.0   -8.501283916858425e-06
-8.084526561204989e-06   0.0   -8.501283916858425e-06
-8.084526561204989e-06   0.0   -8.501283916858425e-06
-1.400241392650177e-05   1.8338924872245297e-06   2.6152619963486624e-07
-1.400241392650177e-05   1.8338924872245297e-06   2.6152619963486624e-07
-1.400241392650177e-05   1.8338924872245297e-06   2.6152619963486624e-07
-1.400241392650177e-05   1.8338924872245297e-06   2.6152619963486624e-07
-1.0841331173132066e-05   6.884577003714016e-07   -4.319684183869429e-06
-1.0841331173132066e-05   6.884577003714016e-07   -4.319684183869429e-06
-1.0841331173132066e-05   6.884577003714016e-07   -4.319684183869429e-06
-1.0841331173132066e-05   6.884577003714016e-07   -4.319684183869429e-06
-1.4002413926501796e-05   0.0   -9.601619409193145e-06
-1.4002413926501796e-05   0.0   -9.601619409193145e-06
-1.4002413926501796e-05   0.0   -9.601619409193145e-06
-1.4002413926501796e-05   0.0   -9.601619409193145e-06
-8.084526561204976e-06   1.8338924872245297e-06   1.3618616919695813e-06
-8.084526561204976e-06   1.8338924872245297e-06   1.3618616919695813e-06
-8.084526561204976e-06   1.8338924872245297e-06   1.3618616919695813e-06
-8.084526561204976e-06   1.8338924872245297e-06   1.3618616919695813e-06
-8.061462743176735e-06   0.0   -8.554980204905372e-06
-8.061462743176735e-06   0.0   -8.554980204905372e-06
-8.061462743176735e-06   0.0   -8.554980204905372e-06
-8.061462743176735e-06   0.0   -8.554980204905372e-06
-1.4889903526823252e-05   2.101342691318723e-06   1.5649488197142955e-06
-1.4889903526823252e-05   2.101342691318723e-06   1.5649488197142955e-06
-1.4889903526823252e-05   2.101342691318723e-06   1.5649488197142955e-06
-1.4889903526823252e-05   2.101342691318723e-06   1.5649488197142955e-06
-1.1031938334839245e-05   8.721993369064777e-07   -4.127507154278363e-06
-1.1031938334839245e-05   8.721993369064777e-07   -4.127507154278363e-06
-1.1031938334839245e-05   8.721993369064777e-07   -4.127507154278363e-06
-1.1031938334839245e-05   8.721993369064777e-07   -4.127507154278363e-06
-8.257168956740038e-06   0.0   -7.918524814189007e-06
-8.257168956740038e-06   0.0   -7.918524814189007e-06
-8.257168956740038e-06   0.0   -7.918524814189007e-06
-8.257168956740038e-06   0.0   -7.918524814189007e-06
-3.77966028646608e-06   5.118849063727591e-07   -1.4887941990875915e-07
-3.77966028646608e-06   5.118849063727591e-07   -1.4887941990875915e-07
-3.77966028646608e-06   5.118849063727591e-07   -1.4887941990875915e-07
-3.77966028646608e-06   5.118849063727591e-07   -1.4887941990875915e-07
-3.6189569733135484e-06   0.0   -7.859375196558405e-06
-3.6189569733135484e-06   0.0   -7.859375196558405e-06
-3.6189569733135484e-06   0.0   -7.859375196558405e-06
-3.6189569733135484e-06   0.0   -7.859375196558405e-06
-8.0784340548442e-06   7.386393143233575e-07   -8.70096982601361e-07
-8.0784340548442e-06   7.386393143233575e-07   -8.70096982601361e-07
-8.0784340548442e-06   7.386393143233575e-07   -8.70096982601361e-07
-8.0784340548442e-06   7.386393143233575e-07   -8.70096982601361e-07
-5.938062965026786e-06   4.929134802548982e-08   -4.0237733525183005e-06
-5.938062965026786e-06   4.929134802548982e-08   -4.0237733525183005e-06
-5.938062965026786e-06   4.929134802548982e-08   -4.0237733525183005e-06
-5.938062965026786e-06   4.929134802548982e-08   -4.0237733525183005e-06
-8.078434054844193e-06   0.0   -8.302558785152426e-06
-8.078434054844193e-06   0.0   -8.302558785152426e-06
-8.078434054844193e-06   0.0   -8.302558785152426e-06
-8.078434054844193e-06   0.0   -8.302558785152426e-06
-3.6189569733135484e-06   7.386393143233575e-07   -4.269133940073448e-07
-3.6189569733135484e-06   7.386393143233575e-07   -4.269133940073448e-07
-3.6189569733135484e-06   7.386393143233575e-07   -4.269133940073448e-07
-3.6189569733135484e-06   7.386393143233575e-07   -4.269133940073448e-07
-3.5218785485865367e-06   0.0   -7.954580018647297e-06
-3.5218785485865367e-06   0.0   -7.954580018647297e-06
-3.5218785485865367e-06   0.0   -7.954580018647297e-06
-3.5218785485865367e-06   0.0   -7.954580018647297e-06
-8.084526561204989e-06   9.111731636851921e-07   -8.968705624943492e-07
-8.084526561204989e-06   9.111731636851921e-07   -8.968705624943492e-07
-8.084526561204989e-06   9.111731636851921e-07   -8.968705624943492e-07
-8.084526561204989e-06   9.111731636851921e-07   -8.968705624943492e-07
-5.80015630171536e-06   2.8998230542093583e-07   -4.331439813351812e-06
-5.80015630171536e-06   2.8998230542093583e-07   -4.331439813351812e-06
-5.80015630171536e-06   2.8998230542093583e-07   -4.331439813351812e-06
-5.80015630171536e-06   2.8998230542093583e-07   -4.331439813351812e-06
-8.084526561204989e-06   0.0   -8.501283916858425e-06
-8.084526561204989e-06   0.0   -8.501283916858425e-06
-8.084526561204989e-06   0.0   -8.501283916858425e-06
-8.084526561204989e-06   0.0   -8.501283916858425e-06
-3.5218785485865426e-06   9.111731636851921e-07   -3.5016666428323494e-07
-3.5218785485865426e-06   9.111731636851921e-07   -3.5016666428323494e-07
-3.5218785485865426e-06   9.111731636851921e-07   -3.5016666428323494e-07
-3.5218785485865426e-06   9.111731636851921e-07   -3.5016666428323494e-07
-3.4307239270431077e-06   0.0   -7.916451089397072e-06
-3.4307239270431077e-06   0.0   -7.916451089397072e-06
-3.4307239270431077e-06   0.0   -7.916451089397072e-06
-3.4307239270431077e-06   0.0   -7.916451089397072e-06
-8.061462743176713e-06   1.0642151925138195e-06   -8.370821780159915e-07
-8.061462743176713e-06   1.0642151925138195e-06   -8.370821780159915e-07
-8.061462743176713e-06   1.0642151925138195e-06   -8.370821780159915e-07
-8.061462743176713e-06   1.0642151925138195e-06   -8.370821780159915e-07
-5.7576252441240465e-06   4.873606895511218e-07   -4.33069864132618e-06
-5.7576252441240465e-06   4.873606895511218e-07   -4.33069864132618e-06
-5.7576252441240465e-06   4.873606895511218e-07   -4.33069864132618e-06
-5.7576252441240465e-06   4.873606895511218e-07   -4.33069864132618e-06
-3.7796602864660864e-06   0.0   -7.61139387036535e-06
-3.7796602864660864e-06   0.0   -7.61139387036535e-06
-3.7796602864660864e-06   0.0   -7.61139387036535e-06
-3.7796602864660864e-06   0.0   -7.61139387036535e-06
4.3648036146312436e-07   -6.993256020095043e-08   -6.264523266038948e-07
4.3648036146312436e-07   -6.993256020095043e-08   -6.264523266038948e-07
4.3648036146312436e-07   -6.993256020095043e-08   -6.264523266038948e-07
4.3648036146312436e-07   -6.993256020095043e-08   -6.264523266038948e-07
5.46793819326177e-07   0.0   -7.779658742561167e-06
5.46793819326177e-07   0.0   -7.779658742561167e-06
5.46793819326177e-07   0.0   -7.779658742561167e-06
5.46793819326177e-07   0.0   -7.779658742561167e-06
-3.6189569733135484e-06   1.328607566620405e-07   -9.164572088255287e-07
-3.6189569733135484e-06   1.328607566620405e-07   -9.164572088255287e-07
-3.6189569733135484e-06   1.328607566620405e-07   -9.164572088255287e-07
-3.6189569733135484e-06   1.328607566620405e-07   -9.164572088255287e-07
-1.6164332335699512e-06   -1.4022072682986947e-07   -4.090147884969708e-06
-1.6164332335699512e-06   -1.4022072682986947e-07   -4.090147884969708e-06
-1.6164332335699512e-06   -1.4022072682986947e-07   -4.090147884969708e-06
-1.6164332335699512e-06   -1.4022072682986947e-07   -4.090147884969708e-06
-3.6189569733135547e-06   0.0   -7.859375196558418e-06
-3.6189569733135547e-06   0.0   -7.859375196558418e-06
-3.6189569733135547e-06   0.0   -7.859375196558418e-06
-3.6189569733135547e-06   0.0   -7.859375196558418e-06
5.467938193261779e-07   1.328607566620405e-07   -8.367407548283037e-07
5.467938193261779e-07   1.328607566620405e-07   -8.367407548283037e-07
5.467938193261779e-07   1.328607566620405e-07   -8.367407548283037e-07
5.467938193261779e-07   1.328607566620405e-07   -8.367407548283037e-07
6.360661970021449e-07   0.0   -7.76724707873874e-06
6.360661970021449e-07   0.0   -7.76724707873874e-06
6.360661970021449e-07   0.0   -7.76724707873874e-06
6.360661970021449e-07   0.0   -7.76724707873874e-06
-3.5218785485865303e-06   3.1222156651426064e-07   -1.024672109332828e-06
-3.5218785485865303e-06   3.1222156651426064e-07   -1.024672109332828e-06
-3.5218785485865303e-06   3.1222156651426064e-07   -1.024672109332828e-06
-3.5218785485865303e-06   3.1222156651426064e-07   -1.024672109332828e-06
-1.4914453881557017e-06   7.677343151638741e-08   -4.267458495718825e-06
-1.4914453881557017e-06   7.677343151638741e-08   -4.267458495718825e-06
-1.4914453881557017e-06   7.677343151638741e-08   -4.267458495718825e-06
-1.4914453881557017e-06   7.677343151638741e-08   -4.267458495718825e-06
-3.5218785485865426e-06   0.0   -7.95458001864731e-06
-3.5218785485865426e-06   0.0   -7.95458001864731e-06
-3.5218785485865426e-06   0.0   -7.95458001864731e-06
-3.5218785485865426e-06   0.0   -7.95458001864731e-06
6.36066197002146e-07   3.1222156651426233e-07   -8.373391694242724e-07
6.36066197002146e-07   3.1222156651426233e-07   -8.373391694242724e-07
6.36066197002146e-07   3.1222156651426233e-07   -8.373391694242724e-07
6.36066197002146e-07   3.1222156651426233e-07   -8.373391694242724e-07
7.506422246991985e-07   0.0   -7.6050662320577555e-06
7.506422246991985e-07   0.0   -7.6050662320577555e-06
7.506422246991985e-07   0.0   -7.6050662320577555e-06
7.506422246991985e-07   0.0   -7.6050662320577555e-06
-3.4307239270431048e-06   5.189747622321812e-07   -9.475075031598949e-07
-3.4307239270431048e-06   5.189747622321812e-07   -9.475075031598949e-07
-3.4307239270431048e-06   5.189747622321812e-07   -9.475075031598949e-07
-3.4307239270431048e-06   5.189747622321812e-07   -9.475075031598949e-07
-1.385618161943669e-06   2.912614888246172e-07   -4.219389147614411e-06
-1.385618161943669e-06   2.912614888246172e-07   -4.219389147614411e-06
-1.385618161943669e-06   2.912614888246172e-07   -4.219389147614411e-06
-1.385618161943669e-06   2.912614888246172e-07   -4.219389147614411e-06
4.364803614631251e-07   0.0   -7.65335340648592e-06
4.364803614631251e-07   0.0   -7.65335340648592e-06
4.364803614631251e-07   0.0   -7.65335340648592e-06
4.364803614631251e-07   0.0   -7.65335340648592e-06
5.027236771108896e-06   -5.89731464718601e-07   -3.55931602574093e-07
5.027236771108896e-06   -5.89731464718601e-07   -3.55931602574093e-07
5.027236771108896e-06   -5.89731464718601e-07   -3.55931602574093e-07
5.027236771108896e-06   -5.89731464718601e-07   -3.55931602574093e-07
5.057065175192567e-06   0.0   -8.043583758753143e-06
5.057065175192567e-06   0.0   -8.043583758753143e-06
5.057065175192567e-06   0.0   -8.043583758753143e-06
5.057065175192567e-06   0.0   -8.043583758753143e-06
5.467938193261779e-07   -4.398750269865821e-07   -2.625398161172147e-07
5.467938193261779e-07   -4.398750269865821e-07   -2.625398161172147e-07
5.467938193261779e-07   -4.398750269865821e-07   -2.625398161172147e-07
5.467938193261779e-07   -4.398750269865821e-07   -2.625398161172147e-07
2.746772768327846e-06   -3.2519196022268616e-07   -3.997981237844995e-06
2.746772768327846e-06   -3.2519196022268616e-07   -3.997981237844995e-06
2.746772768327846e-06   -3.2519196022268616e-07   -3.997981237844995e-06
2.746772768327846e-06   -3.2519196022268616e-07   -3.997981237844995e-06
5.467938193261789e-07   0.0   -7.779658742561194e-06
5.467938193261789e-07   0.0   -7.779658742561194e-06
5.467938193261789e-07   0.0   -7.779658742561194e-06
5.467938193261789e-07   0.0   -7.779658742561194e-06
5.0570651751925575e-06   -4.398750269865821e-07   -5.264648323091639e-07
5.0570651751925575e-06   -4.398750269865821e-07   -5.264648323091639e-07
5.0570651751925575e-06   -4.398750269865821e-07   -5.264648323091639e-07
5.0570651751925575e-06   -4.398750269865821e-07   -5.264648323091639e-07
5.0534083549641905e-06   0.0   -7.928874072280113e-06
5.0534083549641905e-06   0.0   -7.928874072280113e-06
5.0534083549641905e-06   0.0   -7.928874072280113e-06
5.0534083549641905e-06   0.0   -7.928874072280113e-06
6.36066197002146e-07   -2.693783225689328e-07   -4.0501014880201315e-07
6.36066197002146e-07   -2.693783225689328e-07   -4.0501014880201315e-07
6.36066197002146e-07   -2.693783225689328e-07   -4.0501014880201315e-07
6.36066197002146e-07   -2.693783225689328e-07   -4.0501014880201315e-07
2.8001010871451847e-06   -1.2434610809909924e-07   -4.098754294388975e-06
2.8001010871451847e-06   -1.2434610809909924e-07   -4.098754294388975e-06
2.8001010871451847e-06   -1.2434610809909924e-07   -4.098754294388975e-06
2.8001010871451847e-06   -1.2434610809909924e-07   -4.098754294388975e-06
6.36066197002146e-07   0.0   -7.767247078738752e-06
6.36066197002146e-07   0.0   -7.767247078738752e-06
6.36066197002146e-07   0.0   -7.767247078738752e-06
6.36066197002146e-07   0.0   -7.767247078738752e-06
5.053408354964181e-06   -2.693783225689328e-07   -5.66637142343372e-07
5.053408354964181e-06   -2.693783225689328e-07   -5.66637142343372e-07
5.053408354964181e-06   -2.693783225689328e-07   -5.66637142343372e-07
5.053408354964181e-06   -2.693783225689328e-07   -5.66637142343372e-07
5.1685750625887975e-06   0.0   -7.629885727194613e-06
5.1685750625887975e-06   0.0   -7.629885727194613e-06
5.1685750625887975e-06   0.0   -7.629885727194613e-06
5.1685750625887975e-06   0.0   -7.629885727194613e-06
7.506422246991998e-07   -4.1365825228071405e-08   -2.418448355751077e-07
7.506422246991998e-07   -4.1365825228071405e-08   -2.418448355751077e-07
7.506422246991998e-07   -4.1365825228071405e-08   -2.418448355751077e-07
7.506422246991998e-07   -4.1365825228071405e-08   -2.418448355751077e-07
2.902320629795472e-06   1.1446779295345118e-07   -3.921475681644471e-06
2.902320629795472e-06   1.1446779295345118e-07   -3.921475681644471e-06
2.902320629795472e-06   1.1446779295345118e-07   -3.921475681644471e-06
2.902320629795472e-06   1.1446779295345118e-07   -3.921475681644471e-06
5.027236771108914e-06   0.0   -8.007192285317082e-06
5.027236771108914e-06   0.0   -8.007192285317082e-06
5.027236771108914e-06   0.0   -8.007192285317082e-06
5.027236771108914e-06   0.0   -8.007192285317082e-06
1.1460153835279605e-05   -1.5090194608071675e-06   1.8089244784831432e-06
1.1460153835279605e-05   -1.5090194608071675e-06   1.8089244784831432e-06
1.1460153835279605e-05   -1.5090194608071675e-06   1.8089244784831432e-06
1.1460153835279605e-05   -1.5090194608071675e-06   1.8089244784831432e-06
1.0790067338671569e-05   0.0   -8.807325162908608e-06
1.0790067338671569e-05   0.0   -8.807325162908608e-06
1.0790067338671569e-05   0.0   -8.807325162908608e-06
1.0790067338671569e-05   0.0   -8.807325162908608e-06
5.0570651751925575e-06   -1.2729023402591063e-06   1.511419847045191e-06
5.0570651751925575e-06   -1.2729023402591063e-06   1.511419847045191e-06
5.0570651751925575e-06   -1.2729023402591063e-06   1.511419847045191e-06
5.0570651751925575e-06   -1.2729023402591063e-06   1.511419847045191e-06
7.908652054890242e-06   -6.667773979929396e-07   -3.6048999178106288e-06
7.908652054890242e-06   -6.667773979929396e-07   -3.6048999178106288e-06
7.908652054890242e-06   -6.667773979929396e-07   -3.6048999178106288e-06
7.908652054890242e-06   -6.667773979929396e-07   -3.6048999178106288e-06
5.057065175192562e-06   0.0   -8.043583758753136e-06
5.057065175192562e-06   0.0   -8.043583758753136e-06
5.057065175192562e-06   0.0   -8.043583758753136e-06
5.057065175192562e-06   0.0   -8.043583758753136e-06
1.0790067338671569e-05   -1.272902340259108e-06   7.476784428897293e-07
1.0790067338671569e-05   -1.272902340259108e-06   7.476784428897293e-07
1.0790067338671569e-05   -1.272902340259108e-06   7.476784428897293e-07
1.0790067338671569e-05   -1.272902340259108e-06   7.476784428897293e-07
1.048919491862152e-05   0.0   -8.624413389309498e-06
1.048919491862152e-05   0.0   -8.624413389309498e-06
1.048919491862152e-05   0.0   -8.624413389309498e-06
1.048919491862152e-05   0.0   -8.624413389309498e-06
5.053408354964181e-06   -1.1592321950489736e-06   1.130770200482103e-06
5.053408354964181e-06   -1.1592321950489736e-06   1.130770200482103e-06
5.053408354964181e-06   -1.1592321950489736e-06   1.130770200482103e-06
5.053408354964181e-06   -1.1592321950489736e-06   1.130770200482103e-06
7.773130046907039e-06   -4.840246921302958e-07   -3.807223787840519e-06
7.773130046907039e-06   -4.840246921302958e-07   -3.807223787840519e-06
7.773130046907039e-06   -4.840246921302958e-07   -3.807223787840519e-06
7.773130046907039e-06   -4.840246921302958e-07   -3.807223787840519e-06
5.0534083549641905e-06   0.0   -7.928874072280113e-06
5.0534083549641905e-06   0.0   -7.928874072280113e-06
5.0534083549641905e-06   0.0   -7.928874072280113e-06
5.0534083549641905e-06   0.0   -7.928874072280113e-06
1.0489194918621502e-05   -1.1592321950489736e-06   4.3523088345271877e-07
1.0489194918621502e-05   -1.1592321950489736e-06   4.3523088345271877e-07
1.0489194918621502e-05   -1.1592321950489736e-06   4.3523088345271877e-07
1.0489194918621502e-05   -1.1592321950489736e-06   4.3523088345271877e-07
1.0028698233517128e-05   0.0   -8.162694671001457e-06
1.0028698233517128e-05   0.0   -8.162694671001457e-06
1.0028698233517128e-05   0.0   -8.162694671001457e-06
1.0028698233517128e-05   0.0   -8.162694671001457e-06
5.168575062588784e-06   -8.880149063447393e-07   4.7031955768594515e-07
5.168575062588784e-06   -8.880149063447393e-07   4.7031955768594515e-07
5.168575062588784e-06   -8.880149063447393e-07   4.7031955768594515e-07
5.168575062588784e-06   -8.880149063447393e-07   4.7031955768594515e-07
7.541053294240646e-06   -1.9485049893445292e-07   -3.899709472846659e-06
7.541053294240646e-06   -1.9485049893445292e-07   -3.899709472846659e-06
7.541053294240646e-06   -1.9485049893445292e-07   -3.899709472846659e-06
7.541053294240646e-06   -1.9485049893445292e-07   -3.899709472846659e-06
-1.1122161246849357e-05   1.411459698091361e-06   -7.447797858020777e-06
-1.1122161246849357e-05   1.411459698091361e-06   -7.447797858020777e-06
-1.1122161246849357e-05   1.411459698091361e-06   -7.447797858020777e-06
-1.1122161246849357e-05   1.411459698091361e-06   -7.447797858020777e-06
-7.138690086179754e-06   1.259177011173266e-06   -9.000488690556306e-07