<?xml version="1.0"?> 
<VTKFile type="UnstructuredGrid"> 
   <UnstructuredGrid> 
      <Piece NumberOfPoints="6000"  NumberOfCells="1500">  
          <Points>  
             <DataArray type="Float64" NumberOfComponents="3" format="ascii">   
-500.0   0.0   0.0
-450.0   0.0   0.0
-500.0   30.0   0.0
-500.0   0.0   16.666666666666668
-450.0   0.0   0.0
-450.0   30.0   0.0
-500.0   30.0   0.0
-450.0   30.0   16.666666666666668
-500.0   0.0   16.666666666666668
-500.0   30.0   16.666666666666668
-450.0   30.0   16.666666666666668
-500.0   30.0   0.0
-500.0   0.0   16.666666666666668
-450.0   30.0   16.666666666666668
-450.0   0.0   16.666666666666668
-450.0   0.0   0.0
-500.0   0.0   16.666666666666668
-450.0   30.0   16.666666666666668
-450.0   0.0   0.0
-500.0   30.0   0.0
-500.0   0.0   16.666666666666668
-450.0   0.0   16.666666666666668
-500.0   30.0   16.666666666666668
-500.0   0.0   33.333333333333336
-450.0   0.0   16.666666666666668
-450.0   30.0   16.666666666666668
-500.0   30.0   16.666666666666668
-450.0   30.0   33.333333333333336
-500.0   0.0   33.333333333333336
-500.0   30.0   33.333333333333336
-450.0   30.0   33.333333333333336
-500.0   30.0   16.666666666666668
-500.0   0.0   33.333333333333336
-450.0   30.0   33.333333333333336
-450.0   0.0   33.333333333333336
-450.0   0.0   16.666666666666668
-500.0   0.0   33.333333333333336
-450.0   30.0   33.333333333333336
-450.0   0.0   16.666666666666668
-500.0   30.0   16.666666666666668
-500.0   0.0   33.333333333333336
-450.0   0.0   33.333333333333336
-500.0   30.0   33.333333333333336
-500.0   0.0   50.0
-450.0   0.0   33.333333333333336
-450.0   30.0   33.333333333333336
-500.0   30.0   33.333333333333336
-450.0   30.0   50.0
-500.0   0.0   50.0
-500.0   30.0   50.0
-450.0   30.0   50.0
-500.0   30.0   33.333333333333336
-500.0   0.0   50.0
-450.0   30.0   50.0
-450.0   0.0   50.0
-450.0   0.0   33.333333333333336
-500.0   0.0   50.0
-450.0   30.0   50.0
-450.0   0.0   33.333333333333336
-500.0   30.0   33.333333333333336
-500.0   30.0   0.0
-450.0   30.0   0.0
-500.0   60.0   0.0
-500.0   30.0   16.666666666666668
-450.0   30.0   0.0
-450.0   60.0   0.0
-500.0   60.0   0.0
-450.0   60.0   16.666666666666668
-500.0   30.0   16.666666666666668
-500.0   60.0   16.666666666666668
-450.0   60.0   16.666666666666668
-500.0   60.0   0.0
-500.0   30.0   16.666666666666668
-450.0   60.0   16.666666666666668
-450.0   30.0   16.666666666666668
-450.0   30.0   0.0
-500.0   30.0   16.666666666666668
-450.0   60.0   16.666666666666668
-450.0   30.0   0.0
-500.0   60.0   0.0
-500.0   30.0   16.666666666666668
-450.0   30.0   16.666666666666668
-500.0   60.0   16.666666666666668
-500.0   30.0   33.333333333333336
-450.0   30.0   16.666666666666668
-450.0   60.0   16.666666666666668
-500.0   60.0   16.666666666666668
-450.0   60.0   33.333333333333336
-500.0   30.0   33.333333333333336
-500.0   60.0   33.333333333333336
-450.0   60.0   33.333333333333336
-500.0   60.0   16.666666666666668
-500.0   30.0   33.333333333333336
-450.0   60.0   33.333333333333336
-450.0   30.0   33.333333333333336
-450.0   30.0   16.666666666666668
-500.0   30.0   33.333333333333336
-450.0   60.0   33.333333333333336
-450.0   30.0   16.666666666666668
-500.0   60.0   16.666666666666668
-500.0   30.0   33.333333333333336
-450.0   30.0   33.333333333333336
-500.0   60.0   33.333333333333336
-500.0   30.0   50.0
-450.0   30.0   33.333333333333336
-450.0   60.0   33.333333333333336
-500.0   60.0   33.333333333333336
-450.0   60.0   50.0
-500.0   30.0   50.0
-500.0   60.0   50.0
-450.0   60.0   50.0
-500.0   60.0   33.333333333333336
-500.0   30.0   50.0
-450.0   60.0   50.0
-450.0   30.0   50.0
-450.0   30.0   33.333333333333336
-500.0   30.0   50.0
-450.0   60.0   50.0
-450.0   30.0   33.333333333333336
-500.0   60.0   33.333333333333336
-500.0   60.0   0.0
-450.0   60.0   0.0
-500.0   90.0   0.0
-500.0   60.0   16.666666666666668
-450.0   60.0   0.0
-450.0   90.0   0.0
-500.0   90.0   0.0
-450.0   90.0   16.666666666666668
-500.0   60.0   16.666666666666668
-500.0   90.0   16.666666666666668
-450.0   90.0   16.666666666666668
-500.0   90.0   0.0
-500.0   60.0   16.666666666666668
-450.0   90.0   16.666666666666668
-450.0   60.0   16.666666666666668
-450.0   60.0   0.0
-500.0   60.0   16.666666666666668
-450.0   90.0   16.666666666666668
-450.0   60.0   0.0
-500.0   90.0   0.0
-500.0   60.0   16.666666666666668
-450.0   60.0   16.666666666666668
-500.0   90.0   16.666666666666668
-500.0   60.0   33.333333333333336
-450.0   60.0   16.666666666666668
-450.0   90.0   16.666666666666668
-500.0   90.0   16.666666666666668
-450.0   90.0   33.333333333333336
-500.0   60.0   33.333333333333336
-500.0   90.0   33.333333333333336
-450.0   90.0   33.333333333333336
-500.0   90.0   16.666666666666668
-500.0   60.0   33.333333333333336
-450.0   90.0   33.333333333333336
-450.0   60.0   33.333333333333336
-450.0   60.0   16.666666666666668
-500.0   60.0   33.333333333333336
-450.0   90.0   33.333333333333336
-450.0   60.0   16.666666666666668
-500.0   90.0   16.666666666666668
-500.0   60.0   33.333333333333336
-450.0   60.0   33.333333333333336
-500.0   90.0   33.333333333333336
-500.0   60.0   50.0
-450.0   60.0   33.333333333333336
-450.0   90.0   33.333333333333336
-500.0   90.0   33.333333333333336
-450.0   90.0   50.0
-500.0   60.0   50.0
-500.0   90.0   50.0
-450.0   90.0   50.0
-500.0   90.0   33.333333333333336
-500.0   60.0   50.0
-450.0   90.0   50.0
-450.0   60.0   50.0
-450.0   60.0   33.333333333333336
-500.0   60.0   50.0
-450.0   90.0   50.0
-450.0   60.0   33.333333333333336
-500.0   90.0   33.333333333333336
-500.0   90.0   0.0
-450.0   90.0   0.0
-500.0   120.0   0.0
-500.0   90.0   16.666666666666668
-450.0   90.0   0.0
-450.0   120.0   0.0
-500.0   120.0   0.0
-450.0   120.0   16.666666666666668
-500.0   90.0   16.666666666666668
-500.0   120.0   16.666666666666668
-450.0   120.0   16.666666666666668
-500.0   120.0   0.0
-500.0   90.0   16.666666666666668
-450.0   120.0   16.666666666666668
-450.0   90.0   16.666666666666668
-450.0   90.0   0.0
-500.0   90.0   16.666666666666668
-450.0   120.0   16.666666666666668
-450.0   90.0   0.0
-500.0   120.0   0.0
-500.0   90.0   16.666666666666668
-450.0   90.0   16.666666666666668
-500.0   120.0   16.666666666666668
-500.0   90.0   33.333333333333336
-450.0   90.0   16.666666666666668
-450.0   120.0   16.666666666666668
-500.0   120.0   16.666666666666668
-450.0   120.0   33.333333333333336
-500.0   90.0   33.333333333333336
-500.0   120.0   33.333333333333336
-450.0   120.0   33.333333333333336
-500.0   120.0   16.666666666666668
-500.0   90.0   33.333333333333336
-450.0   120.0   33.333333333333336
-450.0   90.0   33.333333333333336
-450.0   90.0   16.666666666666668
-500.0   90.0   33.333333333333336
-450.0   120.0   33.333333333333336
-450.0   90.0   16.666666666666668
-500.0   120.0   16.666666666666668
-500.0   90.0   33.333333333333336
-450.0   90.0   33.333333333333336
-500.0   120.0   33.333333333333336
-500.0   90.0   50.0
-450.0   90.0   33.333333333333336
-450.0   120.0   33.333333333333336
-500.0   120.0   33.333333333333336
-450.0   120.0   50.0
-500.0   90.0   50.0
-500.0   120.0   50.0
-450.0   120.0   50.0
-500.0   120.0   33.333333333333336
-500.0   90.0   50.0
-450.0   120.0   50.0
-450.0   90.0   50.0
-450.0   90.0   33.333333333333336
-500.0   90.0   50.0
-450.0   120.0   50.0
-450.0   90.0   33.333333333333336
-500.0   120.0   33.333333333333336
-500.0   120.0   0.0
-450.0   120.0   0.0
-500.0   150.0   0.0
-500.0   120.0   16.666666666666668
-450.0   120.0   0.0
-450.0   150.0   0.0
-500.0   150.0   0.0
-450.0   150.0   16.666666666666668
-500.0   120.0   16.666666666666668
-500.0   150.0   16.666666666666668
-450.0   150.0   16.666666666666668
-500.0   150.0   0.0
-500.0   120.0   16.666666666666668
-450.0   150.0   16.666666666666668
-450.0   120.0   16.666666666666668
-450.0   120.0   0.0
-500.0   120.0   16.666666666666668
-450.0   150.0   16.666666666666668
-450.0   120.0   0.0
-500.0   150.0   0.0
-500.0   120.0   16.666666666666668
-450.0   120.0   16.666666666666668
-500.0   150.0   16.666666666666668
-500.0   120.0   33.333333333333336
-450.0   120.0   16.666666666666668
-450.0   150.0   16.666666666666668
-500.0   150.0   16.666666666666668
-450.0   150.0   33.333333333333336
-500.0   120.0   33.333333333333336
-500.0   150.0   33.333333333333336
-450.0   150.0   33.333333333333336
-500.0   150.0   16.666666666666668
-500.0   120.0   33.333333333333336
-450.0   150.0   33.333333333333336
-450.0   120.0   33.333333333333336
-450.0   120.0   16.666666666666668
-500.0   120.0   33.333333333333336
-450.0   150.0   33.333333333333336
-450.0   120.0   16.666666666666668
-500.0   150.0   16.666666666666668
-500.0   120.0   33.333333333333336
-450.0   120.0   33.333333333333336
-500.0   150.0   33.333333333333336
-500.0   120.0   50.0
-450.0   120.0   33.333333333333336
-450.0   150.0   33.333333333333336
-500.0   150.0   33.333333333333336
-450.0   150.0   50.0
-500.0   120.0   50.0
-500.0   150.0   50.0
-450.0   150.0   50.0
-500.0   150.0   33.333333333333336
-500.0   120.0   50.0
-450.0   150.0   50.0
-450.0   120.0   50.0
-450.0   120.0   33.333333333333336
-500.0   120.0   50.0
-450.0   150.0   50.0
-450.0   120.0   33.333333333333336
-500.0   150.0   33.333333333333336
-450.0   0.0   0.0
-400.0   0.0   0.0
-450.0   30.0   0.0
-450.0   0.0   16.666666666666668
-400.0   0.0   0.0
-400.0   30.0   0.0
-450.0   30.0   0.0
-400.0   30.0   16.666666666666668
-450.0   0.0   16.666666666666668
-450.0   30.0   16.666666666666668
-400.0   30.0   16.666666666666668
-450.0   30.0   0.0
-450.0   0.0   16.666666666666668
-400.0   30.0   16.666666666666668
-400.0   0.0   16.666666666666668
-400.0   0.0   0.0
-450.0   0.0   16.666666666666668
-400.0   30.0   16.666666666666668
-400.0   0.0   0.0
-450.0   30.0   0.0
-450.0   0.0   16.666666666666668
-400.0   0.0   16.666666666666668
-450.0   30.0   16.666666666666668
[...]
          <PointData>  
             <DataArray type="Float64" NumberOfComponents="3" Name="Strains" format="ascii">   
-2.5528758638572054e-05   0.0   -1.694577054644598e-05
-2.5528758638572054e-05   0.0   -1.694577054644598e-05
-2.5528758638572054e-05   0.0   -1.694577054644598e-05
-2.5528758638572054e-05   0.0   -1.694577054644598e-05
-1.6225530274966557e-05   2.8027264975200487e-06   2.412459580751822e-07
-1.6225530274966557e-05   2.8027264975200487e-06   2.412459580751822e-07
-1.6225530274966557e-05   2.8027264975200487e-06   2.412459580751822e-07
-1.6225530274966557e-05   2.8027264975200487e-06   2.412459580751822e-07
-1.589160342922211e-05   0.0   -1.6018646170484654e-05
-1.589160342922211e-05   0.0   -1.6018646170484654e-05
-1.589160342922211e-05   0.0   -1.6018646170484654e-05
-1.589160342922211e-05   0.0   -1.6018646170484654e-05
-2.6700930800831677e-05   3.3755191901125136e-06   -2.8412065202814893e-08
-2.6700930800831677e-05   3.3755191901125136e-06   -2.8412065202814893e-08
-2.6700930800831677e-05   3.3755191901125136e-06   -2.8412065202814893e-08
-2.6700930800831677e-05   3.3755191901125136e-06   -2.8412065202814893e-08
-2.0710181033897047e-05   7.726036466344369e-07   -8.451245684007009e-06
-2.0710181033897047e-05   7.726036466344369e-07   -8.451245684007009e-06
-2.0710181033897047e-05   7.726036466344369e-07   -8.451245684007009e-06
-2.0710181033897047e-05   7.726036466344369e-07   -8.451245684007009e-06
-2.6700930800831724e-05   0.0   -1.8043957684552164e-05
-2.6700930800831724e-05   0.0   -1.8043957684552164e-05
-2.6700930800831724e-05   0.0   -1.8043957684552164e-05
-2.6700930800831724e-05   0.0   -1.8043957684552164e-05
-1.589160342922211e-05   3.375519190112517e-06   1.9968994488646953e-06
-1.589160342922211e-05   3.375519190112517e-06   1.9968994488646953e-06
-1.589160342922211e-05   3.375519190112517e-06   1.9968994488646953e-06
-1.589160342922211e-05   3.375519190112517e-06   1.9968994488646953e-06
-1.5922321811396996e-05   0.0   -1.6406931503019293e-05
-1.5922321811396996e-05   0.0   -1.6406931503019293e-05
-1.5922321811396996e-05   0.0   -1.6406931503019293e-05
-1.5922321811396996e-05   0.0   -1.6406931503019293e-05
-2.7517663368398777e-05   3.6196570175016668e-06   7.468435481494185e-07
-2.7517663368398777e-05   3.6196570175016668e-06   7.468435481494185e-07
-2.7517663368398777e-05   3.6196570175016668e-06   7.468435481494185e-07
-2.7517663368398777e-05   3.6196570175016668e-06   7.468435481494185e-07
-2.1311626306114325e-05   1.364188484610724e-06   -8.243270435923435e-06
-2.1311626306114325e-05   1.364188484610724e-06   -8.243270435923435e-06
-2.1311626306114325e-05   1.364188484610724e-06   -8.243270435923435e-06
-2.1311626306114325e-05   1.364188484610724e-06   -8.243270435923435e-06
-2.7517663368398825e-05   0.0   -1.8578725713520298e-05
-2.7517663368398825e-05   0.0   -1.8578725713520298e-05
-2.7517663368398825e-05   0.0   -1.8578725713520298e-05
-2.7517663368398825e-05   0.0   -1.8578725713520298e-05
-1.592232181139697e-05   3.6196570175016668e-06   2.918637758650413e-06
-1.592232181139697e-05   3.6196570175016668e-06   2.918637758650413e-06
-1.592232181139697e-05   3.6196570175016668e-06   2.918637758650413e-06
-1.592232181139697e-05   3.6196570175016668e-06   2.918637758650413e-06
-1.5898059456591583e-05   0.0   -1.6508928572903375e-05
-1.5898059456591583e-05   0.0   -1.6508928572903375e-05
-1.5898059456591583e-05   0.0   -1.6508928572903375e-05
-1.5898059456591583e-05   0.0   -1.6508928572903375e-05
-2.92911217934444e-05   4.133826614415066e-06   3.332546019869016e-06
-2.92911217934444e-05   4.133826614415066e-06   3.332546019869016e-06
-2.92911217934444e-05   4.133826614415066e-06   3.332546019869016e-06
-2.92911217934444e-05   4.133826614415066e-06   3.332546019869016e-06
-2.1707861412495168e-05   1.724830950514098e-06   -7.86082388337245e-06
-2.1707861412495168e-05   1.724830950514098e-06   -7.86082388337245e-06
-2.1707861412495168e-05   1.724830950514098e-06   -7.86082388337245e-06
-2.1707861412495168e-05   1.724830950514098e-06   -7.86082388337245e-06
-1.6225530274966584e-05   0.0   -1.5264134647933948e-05
-1.6225530274966584e-05   0.0   -1.5264134647933948e-05
-1.6225530274966584e-05   0.0   -1.5264134647933948e-05
-1.6225530274966584e-05   0.0   -1.5264134647933948e-05
-7.405498406540977e-06   1.0230348251085123e-06   4.973936117382776e-08
-7.405498406540977e-06   1.0230348251085123e-06   4.973936117382776e-08
-7.405498406540977e-06   1.0230348251085123e-06   4.973936117382776e-08
-7.405498406540977e-06   1.0230348251085123e-06   4.973936117382776e-08
-7.10876241608877e-06   0.0   -1.5139740745718042e-05
-7.10876241608877e-06   0.0   -1.5139740745718042e-05
-7.10876241608877e-06   0.0   -1.5139740745718042e-05
-7.10876241608877e-06   0.0   -1.5139740745718042e-05
-1.589160342922211e-05   1.4648423746109747e-06   -1.3805778152624443e-06
-1.589160342922211e-05   1.4648423746109747e-06   -1.3805778152624443e-06
-1.589160342922211e-05   1.4648423746109747e-06   -1.3805778152624443e-06
-1.589160342922211e-05   1.4648423746109747e-06   -1.3805778152624443e-06
-1.1667146345527665e-05   1.036615851798999e-07   -7.604631147761155e-06
-1.1667146345527665e-05   1.036615851798999e-07   -7.604631147761155e-06
-1.1667146345527665e-05   1.036615851798999e-07   -7.604631147761155e-06
-1.1667146345527665e-05   1.036615851798999e-07   -7.604631147761155e-06
-1.5891603429222098e-05   0.0   -1.601864617048464e-05
-1.5891603429222098e-05   0.0   -1.601864617048464e-05
-1.5891603429222098e-05   0.0   -1.601864617048464e-05
-1.5891603429222098e-05   0.0   -1.601864617048464e-05
-7.10876241608877e-06   1.4648423746109713e-06   -5.016723904958554e-07
-7.10876241608877e-06   1.4648423746109713e-06   -5.016723904958554e-07
-7.10876241608877e-06   1.4648423746109713e-06   -5.016723904958554e-07
-7.10876241608877e-06   1.4648423746109713e-06   -5.016723904958554e-07
-6.9363431323879235e-06   0.0   -1.532686969317209e-05
-6.9363431323879235e-06   0.0   -1.532686969317209e-05
-6.9363431323879235e-06   0.0   -1.532686969317209e-05
-6.9363431323879235e-06   0.0   -1.532686969317209e-05
-1.5922321811396996e-05   1.800103016411956e-06   -1.4303003713375285e-06
-1.5922321811396996e-05   1.800103016411956e-06   -1.4303003713375285e-06
-1.5922321811396996e-05   1.800103016411956e-06   -1.4303003713375285e-06
-1.5922321811396996e-05   1.800103016411956e-06   -1.4303003713375285e-06
-1.1413973280805e-05   5.764803977604453e-07   -8.210041017799879e-06
-1.1413973280805e-05   5.764803977604453e-07   -8.210041017799879e-06
-1.1413973280805e-05   5.764803977604453e-07   -8.210041017799879e-06
-1.1413973280805e-05   5.764803977604453e-07   -8.210041017799879e-06
-1.5922321811396996e-05   0.0   -1.6406931503019293e-05
-1.5922321811396996e-05   0.0   -1.6406931503019293e-05
-1.5922321811396996e-05   0.0   -1.6406931503019293e-05
-1.5922321811396996e-05   0.0   -1.6406931503019293e-05
-6.936343132387935e-06   1.800103016411956e-06   -3.502385614903559e-07
-6.936343132387935e-06   1.800103016411956e-06   -3.502385614903559e-07
-6.936343132387935e-06   1.800103016411956e-06   -3.502385614903559e-07
-6.936343132387935e-06   1.800103016411956e-06   -3.502385614903559e-07
-6.7770128348071515e-06   0.0   -1.525014407862083e-05
-6.7770128348071515e-06   0.0   -1.525014407862083e-05
-6.7770128348071515e-06   0.0   -1.525014407862083e-05
-6.7770128348071515e-06   0.0   -1.525014407862083e-05
-1.5898059456591542e-05   2.097974157137549e-06   -1.3071842032626483e-06
-1.5898059456591542e-05   2.097974157137549e-06   -1.3071842032626483e-06
-1.5898059456591542e-05   2.097974157137549e-06   -1.3071842032626483e-06
-1.5898059456591542e-05   2.097974157137549e-06   -1.3071842032626483e-06
-1.134966732310207e-05   9.639895203320442e-07   -8.207446976995189e-06
-1.134966732310207e-05   9.639895203320442e-07   -8.207446976995189e-06
-1.134966732310207e-05   9.639895203320442e-07   -8.207446976995189e-06
-1.134966732310207e-05   9.639895203320442e-07   -8.207446976995189e-06
-7.40549840654099e-06   0.0   -1.465031375286884e-05
-7.40549840654099e-06   0.0   -1.465031375286884e-05
-7.40549840654099e-06   0.0   -1.465031375286884e-05
-7.40549840654099e-06   0.0   -1.465031375286884e-05
9.157255546278705e-07   -1.3475004979059295e-07   -8.624571807950801e-07
9.157255546278705e-07   -1.3475004979059295e-07   -8.624571807950801e-07
9.157255546278705e-07   -1.3475004979059295e-07   -8.624571807950801e-07
9.157255546278705e-07   -1.3475004979059295e-07   -8.624571807950801e-07
1.1116672078374393e-06   0.0   -1.4982953037877865e-05
1.1116672078374393e-06   0.0   -1.4982953037877865e-05
1.1116672078374393e-06   0.0   -1.4982953037877865e-05
1.1116672078374393e-06   0.0   -1.4982953037877865e-05
-7.10876241608877e-06   2.6131284640025076e-07   -1.4390247058410235e-06
-7.10876241608877e-06   2.6131284640025076e-07   -1.4390247058410235e-06
-7.10876241608877e-06   2.6131284640025076e-07   -1.4390247058410235e-06
-7.10876241608877e-06   2.6131284640025076e-07   -1.4390247058410235e-06
-3.146915599351768e-06   -2.771994041742309e-07   -7.718995383391332e-06
-3.146915599351768e-06   -2.771994041742309e-07   -7.718995383391332e-06
-3.146915599351768e-06   -2.771994041742309e-07   -7.718995383391332e-06
-3.146915599351768e-06   -2.771994041742309e-07   -7.718995383391332e-06
-7.108762416088782e-06   0.0   -1.5139740745718067e-05
-7.108762416088782e-06   0.0   -1.5139740745718067e-05
-7.108762416088782e-06   0.0   -1.5139740745718067e-05
-7.108762416088782e-06   0.0   -1.5139740745718067e-05
1.1116672078374412e-06   2.6131284640025076e-07   -1.2822369980008728e-06
1.1116672078374412e-06   2.6131284640025076e-07   -1.2822369980008728e-06
1.1116672078374412e-06   2.6131284640025076e-07   -1.2822369980008728e-06
1.1116672078374412e-06   2.6131284640025076e-07   -1.2822369980008728e-06
1.2681802743199381e-06   0.0   -1.4960434973860623e-05
1.2681802743199381e-06   0.0   -1.4960434973860623e-05
1.2681802743199381e-06   0.0   -1.4960434973860623e-05
1.2681802743199381e-06   0.0   -1.4960434973860623e-05
-6.936343132387912e-06   6.107245321857827e-07   -1.6526640153256552e-06
-6.936343132387912e-06   6.107245321857827e-07   -1.6526640153256552e-06
-6.936343132387912e-06   6.107245321857827e-07   -1.6526640153256552e-06
-6.936343132387912e-06   6.107245321857827e-07   -1.6526640153256552e-06
-2.920291070884416e-06   1.4942147654784924e-07   -8.069302284448737e-06
-2.920291070884416e-06   1.4942147654784924e-07   -8.069302284448737e-06
-2.920291070884416e-06   1.4942147654784924e-07   -8.069302284448737e-06
-2.920291070884416e-06   1.4942147654784924e-07   -8.069302284448737e-06
-6.936343132387935e-06   0.0   -1.532686969317212e-05
-6.936343132387935e-06   0.0   -1.532686969317212e-05
-6.936343132387935e-06   0.0   -1.532686969317212e-05
-6.936343132387935e-06   0.0   -1.532686969317212e-05
1.2681802743199404e-06   6.107245321857861e-07   -1.2862292960141912e-06
1.2681802743199404e-06   6.107245321857861e-07   -1.2862292960141912e-06
1.2681802743199404e-06   6.107245321857861e-07   -1.2862292960141912e-06
1.2681802743199404e-06   6.107245321857861e-07   -1.2862292960141912e-06
1.47408918637801e-06   0.0   -1.4641387646053956e-05
1.47408918637801e-06   0.0   -1.4641387646053956e-05
1.47408918637801e-06   0.0   -1.4641387646053956e-05
1.47408918637801e-06   0.0   -1.4641387646053956e-05
-6.777012834807146e-06   1.0145940542781006e-06   -1.4983073766455579e-06
-6.777012834807146e-06   1.0145940542781006e-06   -1.4983073766455579e-06
-6.777012834807146e-06   1.0145940542781006e-06   -1.4983073766455579e-06
-6.777012834807146e-06   1.0145940542781006e-06   -1.4983073766455579e-06
-2.7311269730049567e-06   5.712350392651131e-07   -7.975435070641407e-06
-2.7311269730049567e-06   5.712350392651131e-07   -7.975435070641407e-06
-2.7311269730049567e-06   5.712350392651131e-07   -7.975435070641407e-06
-2.7311269730049567e-06   5.712350392651131e-07   -7.975435070641407e-06
9.157255546278721e-07   0.0   -1.4731163782743195e-05
9.157255546278721e-07   0.0   -1.4731163782743195e-05
9.157255546278721e-07   0.0   -1.4731163782743195e-05
9.157255546278721e-07   0.0   -1.4731163782743195e-05
9.960283126515804e-06   -1.1683137618331752e-06   -3.578894200298136e-07
9.960283126515804e-06   -1.1683137618331752e-06   -3.578894200298136e-07
9.960283126515804e-06   -1.1683137618331752e-06   -3.578894200298136e-07
9.960283126515804e-06   -1.1683137618331752e-06   -3.578894200298136e-07
9.995552690658439e-06   0.0   -1.5509021003001662e-05
9.995552690658439e-06   0.0   -1.5509021003001662e-05
9.995552690658439e-06   0.0   -1.5509021003001662e-05
9.995552690658439e-06   0.0   -1.5509021003001662e-05
1.1116672078374412e-06   -8.767799418729062e-07   -1.7647723317625636e-07
1.1116672078374412e-06   -8.767799418729062e-07   -1.7647723317625636e-07
1.1116672078374412e-06   -8.767799418729062e-07   -1.7647723317625636e-07
1.1116672078374412e-06   -8.767799418729062e-07   -1.7647723317625636e-07
5.455639122643156e-06   -6.482143502153892e-07   -7.553569779513617e-06
5.455639122643156e-06   -6.482143502153892e-07   -7.553569779513617e-06
5.455639122643156e-06   -6.482143502153892e-07   -7.553569779513617e-06
5.455639122643156e-06   -6.482143502153892e-07   -7.553569779513617e-06
1.111667207837443e-06   0.0   -1.4982953037877918e-05
1.111667207837443e-06   0.0   -1.4982953037877918e-05
1.111667207837443e-06   0.0   -1.4982953037877918e-05
1.111667207837443e-06   0.0   -1.4982953037877918e-05
9.995552690658422e-06   -8.767799418729062e-07   -7.025451983000033e-07
9.995552690658422e-06   -8.767799418729062e-07   -7.025451983000033e-07
9.995552690658422e-06   -8.767799418729062e-07   -7.025451983000033e-07
9.995552690658422e-06   -8.767799418729062e-07   -7.025451983000033e-07
9.967874774133321e-06   0.0   -1.5287683830315474e-05
9.967874774133321e-06   0.0   -1.5287683830315474e-05
9.967874774133321e-06   0.0   -1.5287683830315474e-05
9.967874774133321e-06   0.0   -1.5287683830315474e-05
1.2681802743199404e-06   -5.45414760758042e-07   -4.609441408383495e-07
1.2681802743199404e-06   -5.45414760758042e-07   -4.609441408383495e-07
1.2681802743199404e-06   -5.45414760758042e-07   -4.609441408383495e-07
1.2681802743199404e-06   -5.45414760758042e-07   -4.609441408383495e-07
5.539770990985382e-06   -2.5394232703129885e-07   -7.75514546218346e-06
5.539770990985382e-06   -2.5394232703129885e-07   -7.75514546218346e-06
5.539770990985382e-06   -2.5394232703129885e-07   -7.75514546218346e-06
5.539770990985382e-06   -2.5394232703129885e-07   -7.75514546218346e-06
1.2681802743199404e-06   0.0   -1.4960434973860649e-05
1.2681802743199404e-06   0.0   -1.4960434973860649e-05
1.2681802743199404e-06   0.0   -1.4960434973860649e-05
1.2681802743199404e-06   0.0   -1.4960434973860649e-05
9.967874774133304e-06   -5.45414760758042e-07   -7.881929972931719e-07
9.967874774133304e-06   -5.45414760758042e-07   -7.881929972931719e-07
9.967874774133304e-06   -5.45414760758042e-07   -7.881929972931719e-07
9.967874774133304e-06   -5.45414760758042e-07   -7.881929972931719e-07
1.0175461959669699e-05   0.0   -1.4702021269995686e-05
1.0175461959669699e-05   0.0   -1.4702021269995686e-05
1.0175461959669699e-05   0.0   -1.4702021269995686e-05
1.0175461959669699e-05   0.0   -1.4702021269995686e-05
1.4740891863780125e-06   -1.0105603990283893e-07   -1.3909969056784158e-07
1.4740891863780125e-06   -1.0105603990283893e-07   -1.3909969056784158e-07
1.4740891863780125e-06   -1.0105603990283893e-07   -1.3909969056784158e-07
1.4740891863780125e-06   -1.0105603990283893e-07   -1.3909969056784158e-07
5.72182111699482e-06   2.1534475322080233e-07   -7.408493384136698e-06
5.72182111699482e-06   2.1534475322080233e-07   -7.408493384136698e-06
5.72182111699482e-06   2.1534475322080233e-07   -7.408493384136698e-06
5.72182111699482e-06   2.1534475322080233e-07   -7.408493384136698e-06
9.96028312651584e-06   0.0   -1.54321520398431e-05
9.96028312651584e-06   0.0   -1.54321520398431e-05
9.96028312651584e-06   0.0   -1.54321520398431e-05
9.96028312651584e-06   0.0   -1.54321520398431e-05
2.2579600095544656e-05   -2.9734822732023714e-06   3.815953544616906e-06
2.2579600095544656e-05   -2.9734822732023714e-06   3.815953544616906e-06
2.2579600095544656e-05   -2.9734822732023714e-06   3.815953544616906e-06
2.2579600095544656e-05   -2.9734822732023714e-06   3.815953544616906e-06
2.1228695575569393e-05   0.0   -1.702143278798187e-05
2.1228695575569393e-05   0.0   -1.702143278798187e-05
2.1228695575569393e-05   0.0   -1.702143278798187e-05
2.1228695575569393e-05   0.0   -1.702143278798187e-05
9.995552690658422e-06   -2.520686308300341e-06   3.212883805183253e-06
9.995552690658422e-06   -2.520686308300341e-06   3.212883805183253e-06
9.995552690658422e-06   -2.520686308300341e-06   3.212883805183253e-06
9.995552690658422e-06   -2.520686308300341e-06   3.212883805183253e-06
1.5594489351042618e-05   -1.3244006234489738e-06   -6.836448706367852e-06
1.5594489351042618e-05   -1.3244006234489738e-06   -6.836448706367852e-06
1.5594489351042618e-05   -1.3244006234489738e-06   -6.836448706367852e-06
1.5594489351042618e-05   -1.3244006234489738e-06   -6.836448706367852e-06
9.99555269065843e-06   0.0   -1.550902100300165e-05
9.99555269065843e-06   0.0   -1.550902100300165e-05
9.99555269065843e-06   0.0   -1.550902100300165e-05
9.99555269065843e-06   0.0   -1.550902100300165e-05
2.1228695575569393e-05   -2.5206863083003445e-06   1.7004720202030488e-06
2.1228695575569393e-05   -2.5206863083003445e-06   1.7004720202030488e-06
2.1228695575569393e-05   -2.5206863083003445e-06   1.7004720202030488e-06
2.1228695575569393e-05   -2.5206863083003445e-06   1.7004720202030488e-06
2.06125742705863e-05   0.0   -1.6667713757684522e-05
2.06125742705863e-05   0.0   -1.6667713757684522e-05
2.06125742705863e-05   0.0   -1.6667713757684522e-05
2.06125742705863e-05   0.0   -1.6667713757684522e-05
9.967874774133304e-06   -2.300049878948409e-06   2.4534819971061494e-06
9.967874774133304e-06   -2.300049878948409e-06   2.4534819971061494e-06
9.967874774133304e-06   -2.300049878948409e-06   2.4534819971061494e-06
9.967874774133304e-06   -2.300049878948409e-06   2.4534819971061494e-06
1.530406348062236e-05   -9.655772955690503e-07   -7.240849397069863e-06
1.530406348062236e-05   -9.655772955690503e-07   -7.240849397069863e-06
1.530406348062236e-05   -9.655772955690503e-07   -7.240849397069863e-06
1.530406348062236e-05   -9.655772955690503e-07   -7.240849397069863e-06
9.967874774133321e-06   0.0   -1.5287683830315474e-05
9.967874774133321e-06   0.0   -1.5287683830315474e-05
9.967874774133321e-06   0.0   -1.5287683830315474e-05
9.967874774133321e-06   0.0   -1.5287683830315474e-05
2.0612574270586263e-05   -2.300049878948409e-06   1.073452069737108e-06
2.0612574270586263e-05   -2.300049878948409e-06   1.073452069737108e-06
2.0612574270586263e-05   -2.300049878948409e-06   1.073452069737108e-06
2.0612574270586263e-05   -2.300049878948409e-06   1.073452069737108e-06
1.9684766826099756e-05   0.0   -1.576807343409473e-05
1.9684766826099756e-05   0.0   -1.576807343409473e-05
1.9684766826099756e-05   0.0   -1.576807343409473e-05
1.9684766826099756e-05   0.0   -1.576807343409473e-05
1.0175461959669672e-05   -1.7767536068317416e-06   1.146820174054417e-06
1.0175461959669672e-05   -1.7767536068317416e-06   1.146820174054417e-06
1.0175461959669672e-05   -1.7767536068317416e-06   1.146820174054417e-06
1.0175461959669672e-05   -1.7767536068317416e-06   1.146820174054417e-06
1.4826320800116513e-05   -4.0032466981604745e-07   -7.430468588899723e-06
1.4826320800116513e-05   -4.0032466981604745e-07   -7.430468588899723e-06
1.4826320800116513e-05   -4.0032466981604745e-07   -7.430468588899723e-06
1.4826320800116513e-05   -4.0032466981604745e-07   -7.430468588899723e-06
-2.2008279084304847e-05   2.8027264975200454e-06   -1.4567431128887285e-05
-2.2008279084304847e-05   2.8027264975200454e-06   -1.4567431128887285e-05
-2.2008279084304847e-05   2.8027264975200454e-06   -1.4567431128887285e-05